----- GAMESS execution script 'rungms' -----
This job is running on host chemcompute-node-0.novalocal
under operating system Linux at Tue Dec 21 22:58:32 UTC 2021
SLURM has assigned the following compute nodes to this run:
chemcompute-node-0
Available scratch disk space (Kbyte units) at beginning of the job is
Filesystem     1K-blocks     Used Available Use% Mounted on
/dev/sda1       62903276 16630192  46273084  27% /
GAMESS temporary binary files will be written to /scratch/330233
GAMESS supplementary output files will be written to /data/slurm/368215
Copying input file 368215.inp to your run's scratch directory...
The generated host list is
chemcompute-node-0.novalocal

 Distributed Data Interface kickoff program.
 Initiating 1 compute processes on 1 nodes to run the following command:
 /data/gamess-2019R1-ddi/gamess.00.x 368215 

          ******************************************************
          *         GAMESS VERSION = 30 JUN 2019 (R1)          *
          *             FROM IOWA STATE UNIVERSITY             *
          * M.W.SCHMIDT, K.K.BALDRIDGE, J.A.BOATZ, S.T.ELBERT, *
          *   M.S.GORDON, J.H.JENSEN, S.KOSEKI, N.MATSUNAGA,   *
          *          K.A.NGUYEN, S.J.SU, T.L.WINDUS,           *
          *       TOGETHER WITH M.DUPUIS, J.A.MONTGOMERY       *
          *         J.COMPUT.CHEM.  14, 1347-1363(1993)        *
          **************** 64 BIT LINUX VERSION ****************

  SINCE 1993, STUDENTS AND POSTDOCS WORKING AT IOWA STATE UNIVERSITY
  AND ALSO IN THEIR VARIOUS JOBS AFTER LEAVING ISU HAVE MADE IMPORTANT
  CONTRIBUTIONS TO THE CODE:
     IVANA ADAMOVIC, CHRISTINE AIKENS, YURI ALEXEEV, POOJA ARORA,
     ANDREY ASADCHEV, ROB BELL, PRADIPTA BANDYOPADHYAY, JONATHAN BENTZ,
     COLLEEN BERTONI, BRETT BODE, KURT BRORSEN, CALEB CARLIN, GALINA CHABAN,
     WEI CHEN, CHEOL HO CHOI, PAUL DAY, ALBERT DEFUSCO, NUWAN DESILVA,
     TIM DUDLEY, DMITRI FEDOROV, ALEX FINDLATER, GRAHAM FLETCHER, 
     MARK FREITAG, KURT GLAESEMANN, ANASTASIA GUNINA,
     DAN KEMP, GRANT MERRILL, NORIYUKI MINEZAWA, JONATHAN MULLIN,
     TAKESHI NAGATA, SEAN NEDD, HEATHER NETZLOFF, BOSILJKA NJEGIC, RYAN OLSON,
     MIKE PAK, BUU PHAM,
     SPENCER PRUITT, LUKE ROSKOP, JIM SHOEMAKER, LYUDMILA SLIPCHENKO,
     TONY SMITH, SAROM SOK LEANG, JIE SONG, TETSUYA TAKETSUGU, SIMON WEBB,
     PENG XU, SOOHAENG YOO, FEDERICO ZAHARIEV

  ADDITIONAL CODE HAS BEEN PROVIDED BY COLLABORATORS IN OTHER GROUPS:
     IOWA STATE UNIVERSITY:
          JOE IVANIC, AARON WEST, LAIMUTIS BYTAUTAS, KLAUS RUEDENBERG
     UNIVERSITY OF TOKYO: KIMIHIKO HIRAO, TAKAHITO NAKAJIMA,
          TAKAO TSUNEDA, MUNEAKI KAMIYA, SUSUMU YANAGISAWA,
          KIYOSHI YAGI, MAHITO CHIBA, SEIKEN TOKURA, NAOAKI KAWAKAMI
     UNIVERSITY OF AARHUS: FRANK JENSEN
     UNIVERSITY OF IOWA: VISVALDAS KAIRYS, HUI LI
     NATIONAL INST. OF STANDARDS AND TECHNOLOGY: WALT STEVENS, DAVID GARMER
     UNIVERSITY OF PISA: BENEDETTA MENNUCCI, JACOPO TOMASI
     UNIVERSITY OF MEMPHIS: HENRY KURTZ, PRAKASHAN KORAMBATH
     UNIVERSITY OF ALBERTA: TOBY ZENG, MARIUSZ KLOBUKOWSKI
     UNIVERSITY OF NEW ENGLAND: MARK SPACKMAN
     MIE UNIVERSITY: HIROAKI UMEDA
     NAT. INST. OF ADVANCED INDUSTRIAL SCIENCE AND TECHNOLOGY: KAZUO KITAURA
     MICHIGAN STATE UNIVERSITY:
          KAROL KOWALSKI, MARTA WLOCH, JEFFREY GOUR, JESSE LUTZ,
          WEI LI, JUN SHEN, J. EMILIANO DEUSTUA, PIOTR PIECUCH
     UNIVERSITY OF MINNESOTA:
          YINAN SHU
     UNIVERSITY OF SILESIA: MONIKA MUSIAL, STANISLAW KUCHARSKI
     FACULTES UNIVERSITAIRES NOTRE-DAME DE LA PAIX:
          OLIVIER QUINET, BENOIT CHAMPAGNE
     UNIVERSITY OF CALIFORNIA - SANTA BARBARA: BERNARD KIRTMAN
     INSTITUTE FOR MOLECULAR SCIENCE:
          KAZUYA ISHIMURA, MICHIO KATOUDA, AND SHIGERU NAGASE
     UNIVERSITY OF NOTRE DAME: ANNA POMOGAEVA, DAN CHIPMAN
     KYUSHU UNIVERSITY:
          HARUYUKI NAKANO,
          FENG LONG GU, JACEK KORCHOWIEC, MARCIN MAKOWSKI, AND YURIKO AOKI,
          HIROTOSHI MORI AND EISAKU MIYOSHI
     PENNSYLVANIA STATE UNIVERSITY:
          TZVETELIN IORDANOV, CHET SWALINA, JONATHAN SKONE,
          SHARON HAMMES-SCHIFFER
     WASEDA UNIVERSITY:
          MASATO KOBAYASHI, TOMOKO AKAMA, TSUGUKI TOUMA,
          TAKESHI YOSHIKAWA, YASUHIRO IKABATA, JUNJI SEINO,
          YUYA NAKAJIMA, HIROMI NAKAI
     NANJING UNIVERSITY: SHUHUA LI
     UNIVERSITY OF NEBRASKA:
          PEIFENG SU, DEJUN SI, NANDUN THELLAMUREGE, YALI WANG, HUI LI
     UNIVERSITY OF ZURICH: ROBERTO PEVERATI, KIM BALDRIDGE
     N. COPERNICUS UNIVERSITY AND JACKSON STATE UNIVERSITY:
          MARIA BARYSZ
     UNIVERSITY OF COPENHAGEN: Jimmy Kromann, CASPER STEINMANN
     TOKYO INSTITUTE OF TECHNOLOGY: HIROYA NAKATA
     NAGOYA UNIVERSITY: YOSHIO NISHIMOTO, STEPHAN IRLE
     MOSCOW STATE UNIVERSITY: VLADIMIR MIRONOV
     A.N.NESMEYANOV INSTITUTE OF ORGANOELEMENT COMPOUNDS OF RUSSIAN ACADEMY OF SCIENCES:
          IGOR S. GERASIMOV

 EXECUTION OF GAMESS BEGUN Tue Dec 21 22:58:32 2021

            ECHO OF THE FIRST FEW INPUT CARDS -
 INPUT CARD>!File created by the GAMESS Input Deck Generator Plugin for Avogadro            
 INPUT CARD> $BASIS GBASIS=STO NGAUSS=3 $END                                                
 INPUT CARD> $CONTRL SCFTYP=RHF RUNTYP=IRC $END                                             
 INPUT CARD> $STATPT HESS=read ihrep=5 $END                                                 
 INPUT CARD> $irc npoint=100 saddle=.t. tsengy=.t. forwrd=.t. opttol=0.0005 stride=0.1 $end 
 INPUT CARD>                                                                                
 INPUT CARD> $DATA                                                                          
 INPUT CARD>Title                                                                           
 INPUT CARD>C1                                                                              
 INPUT CARD>N     7.0    -7.31053638     2.77415633    -0.23082681                          
 INPUT CARD>C     6.0    -5.83371973     2.79692554    -0.27110875                          
 INPUT CARD>Cl    17.0    -5.11927223     4.03929234     0.75627595                         
 INPUT CARD>H     1.0    -5.33167696     2.09832740    -0.88344425                          
 INPUT CARD>H     1.0    -7.74050570     2.58165598     0.70704991                          
 INPUT CARD>H     1.0    -7.63506746     2.01039076    -0.85355884                          
 INPUT CARD>H     1.0    -7.79413128     3.64312291    -0.56716228                          
 INPUT CARD> $END                                                                           
 INPUT CARD>                                                                                
 INPUT CARD> $HESS                                                                          
 INPUT CARD>ENERGY IS     -547.8517861053 E(NUC) IS      102.2122145588                     
 INPUT CARD> 1  1 6.07637611E-01-8.62566710E-03 2.28066450E-03-2.00731027E-01 1.49636370E-02
 INPUT CARD> 1  2 1.94749910E-02-1.94653597E-02-4.71965294E-04 1.96350737E-05-3.00155471E-02
 INPUT CARD> 1  3-8.08978105E-03-6.66172149E-03-1.13842459E-01-2.08510313E-02 1.09317821E-01
 INPUT CARD> 1  4-1.14097396E-01-9.61438499E-02-7.87815061E-02-1.29485489E-01 1.19218189E-01
 INPUT CARD> 1  5-4.56500616E-02                                                            
 INPUT CARD> 2  1-8.62566710E-03 9.22137416E-01 6.39324400E-02-9.83594367E-04-7.41385945E-02
 INPUT CARD> 2  2-4.73021935E-02-3.20118444E-02-1.60459130E-02-2.49542449E-03 2.26651719E-02
 INPUT CARD> 2  3-5.48303530E-03 1.67814621E-02-2.96641103E-02-1.08411249E-01 6.68910537E-02
 INPUT CARD> 2  4-1.17442927E-01-3.42027468E-01-2.09420364E-01 1.66063453E-01-3.76031347E-01
 INPUT CARD> 2  5 1.11612970E-01                                                            
 INPUT CARD> 3  1 2.28066450E-03 6.39324400E-02 9.01366693E-01 6.87494048E-03-4.80387891E-02
 INPUT CARD> 3  2-5.94979435E-02-2.68023778E-02-3.77582615E-03-1.35770342E-02 1.93916428E-02
 INPUT CARD> 3  3 1.81125860E-02-1.18722229E-02 1.58055327E-01 7.02729299E-02-4.22572754E-01
 INPUT CARD> 3  4-9.65875429E-02-2.10321209E-01-2.55885611E-01-6.32128618E-02 1.09817978E-01
 INPUT CARD> 3  5-1.37961183E-01                                                            
 INPUT CARD> 4  1-2.00731027E-01-9.83594367E-04 6.87494048E-03 5.13809992E-01-8.20283695E-02
 INPUT CARD> 4  2-9.44693117E-02-7.51797460E-02-7.85681329E-02-6.25617695E-02-1.48240418E-01
 INPUT CARD> 4  3 1.48702297E-01 1.34820833E-01-3.97390616E-02-3.64643917E-03 2.18459704E-02
 INPUT CARD> 4  4-8.03991524E-03-2.02783883E-03-1.58392137E-03-4.18798542E-02 1.85523724E-02
 INPUT CARD> 4  5-4.92663333E-03                                                            
 INPUT CARD> 5  1 1.49636370E-02-7.41385945E-02-4.80387891E-02-8.20283695E-02 4.10256662E-01
 INPUT CARD> 5  2 4.59095594E-01-7.70103396E-02-1.53218249E-01-1.55575387E-01 1.36865968E-01
 INPUT CARD> 5  3-2.07849983E-01-2.44388982E-01 1.21670694E-02 8.17286799E-03-5.76234792E-03
 INPUT CARD> 5  4-2.79455955E-02-3.46430992E-04 3.20969026E-03 2.29872750E-02 1.71237486E-02
 INPUT CARD> 5  5-8.54020019E-03                                                            
 INPUT CARD> 6  1 1.94749910E-02-4.73021935E-02-5.94979435E-02-9.44693117E-02 4.59095594E-01
 INPUT CARD> 6  2 2.66504542E-01-6.11671401E-02-1.55362281E-01-9.63458028E-02 1.24851600E-01
 INPUT CARD> 6  3-2.45009702E-01-1.38537727E-01 2.42885093E-02-5.89527864E-03 1.75213824E-02
 INPUT CARD> 6  4-2.33544347E-02 2.11443110E-03-1.83087704E-04 1.03764441E-02-7.64096176E-03
 INPUT CARD> 6  5 1.05387024E-02                                                            
    1000000 WORDS OF MEMORY AVAILABLE

     BASIS OPTIONS
     -------------
     GBASIS=STO          IGAUSS=       3      POLAR=NONE    
     NDFUNC=       0     NFFUNC=       0     DIFFSP=       F
     NPFUNC=       0      DIFFS=       F     BASNAM=        


     RUN TITLE
     ---------
 Title                                                                           

 THE POINT GROUP OF THE MOLECULE IS C1      
 THE ORDER OF THE PRINCIPAL AXIS IS     0

 ATOM      ATOMIC                      COORDINATES (BOHR)
           CHARGE         X                   Y                   Z
 N           7.0   -13.8149105815        5.2423953108       -0.4361994215
 C           6.0   -11.0241317789        5.2854228787       -0.5123212504
 CL         17.0    -9.6740217713        7.6331557069        1.4291543166
 H           1.0   -10.0754085094        3.9652638185       -1.6694675579
 H           1.0   -14.6274347794        4.8786223968        1.3361305895
 H           1.0   -14.4281853972        3.7990876646       -1.6129923220
 H           1.0   -14.7287724315        6.8845040395       -1.0717812998

          INTERNUCLEAR DISTANCES (ANGS.)
          ------------------------------

                1 N          2 C          3 CL         4 H          5 H     

   1 N       0.0000000    1.4775414 *  2.7159859 *  2.1905567 *  1.0495441 *
   2 C       1.4775414 *  0.0000000    1.7633575 *  1.0559551 *  2.1538264 *
   3 CL      2.7159859 *  1.7633575 *  0.0000000    2.5497339 *  2.9996653 *
   4 H       2.1905567 *  1.0559551 *  2.5497339 *  0.0000000    2.9267275 *
   5 H       1.0495441 *  2.1538264 *  2.9996653 *  2.9267275 *  0.0000000  
   6 H       1.0375227 *  2.0500582 *  3.6107112    2.3052622 *  1.6652210 *
   7 H       1.0498040 *  2.1556695 *  3.0105332    2.9240569 *  1.6592783 *

                6 H          7 H     

   1 N       1.0375227 *  1.0498040 *
   2 C       2.0500582 *  2.1556695 *
   3 CL      3.6107112    3.0105332  
   4 H       2.3052622 *  2.9240569 *
   5 H       1.6652210 *  1.6592783 *
   6 H       0.0000000    1.6652743 *
   7 H       1.6652743 *  0.0000000  

  * ... LESS THAN  3.000


     ATOMIC BASIS SET
     ----------------
 THE CONTRACTED PRIMITIVE FUNCTIONS HAVE BEEN UNNORMALIZED
 THE CONTRACTED BASIS FUNCTIONS ARE NOW NORMALIZED TO UNITY

  SHELL TYPE  PRIMITIVE        EXPONENT          CONTRACTION COEFFICIENT(S)

 N         

      1   S       1            99.1061690    0.154328967295
      1   S       2            18.0523124    0.535328142282
      1   S       3             4.8856602    0.444634542185

      2   L       4             3.7804559   -0.099967229187    0.155916274999
      2   L       5             0.8784966    0.399512826089    0.607683718598
      2   L       6             0.2857144    0.700115468880    0.391957393099

 C         

      3   S       7            71.6168373    0.154328967295
      3   S       8            13.0450963    0.535328142282
      3   S       9             3.5305122    0.444634542185

      4   L      10             2.9412494   -0.099967229187    0.155916274999
      4   L      11             0.6834831    0.399512826089    0.607683718598
      4   L      12             0.2222899    0.700115468880    0.391957393099

 CL        

      5   S      13           601.3456136    0.154328967295
      5   S      14           109.5358542    0.535328142282
      5   S      15            29.6446769    0.444634542185

      6   L      16            38.9604189   -0.099967229187    0.155916274999
      6   L      17             9.0535635    0.399512826089    0.607683718598
      6   L      18             2.9444998    0.700115468880    0.391957393099

      7   L      19             2.2112785   -0.219620369005    0.010587604289
      7   L      20             0.6169411    0.225595433605    0.595167005266
      7   L      21             0.2414666    0.900398426019    0.462001011973

 H         

      8   S      22             3.4252509    0.154328967295
      8   S      23             0.6239137    0.535328142282
      8   S      24             0.1688554    0.444634542185

 H         

      9   S      25             3.4252509    0.154328967295
      9   S      26             0.6239137    0.535328142282
      9   S      27             0.1688554    0.444634542185

 H         

     10   S      28             3.4252509    0.154328967295
     10   S      29             0.6239137    0.535328142282
     10   S      30             0.1688554    0.444634542185

 H         

     11   S      31             3.4252509    0.154328967295
     11   S      32             0.6239137    0.535328142282
     11   S      33             0.1688554    0.444634542185

 TOTAL NUMBER OF BASIS SET SHELLS             =   11
 NUMBER OF CARTESIAN GAUSSIAN BASIS FUNCTIONS =   23
 NUMBER OF ELECTRONS                          =   34
 CHARGE OF MOLECULE                           =    0
 SPIN MULTIPLICITY                            =    1
 NUMBER OF OCCUPIED ORBITALS (ALPHA)          =   17
 NUMBER OF OCCUPIED ORBITALS (BETA )          =   17
 TOTAL NUMBER OF ATOMS                        =    7
 THE NUCLEAR REPULSION ENERGY IS      102.2122145588

     $CONTRL OPTIONS
     ---------------
 SCFTYP=RHF          RUNTYP=IRC          EXETYP=RUN     
 MPLEVL=       0     CITYP =NONE         CCTYP =NONE         VBTYP =NONE    
 DFTTYP=NONE         TDDFT =NONE    
 MULT  =       1     ICHARG=       0     NZVAR =       0     COORD =UNIQUE  
 PP    =NONE         RELWFN=NONE         LOCAL =NONE         NUMGRD=       F
 ISPHER=      -1     NOSYM =       0     MAXIT =      30     UNITS =ANGS    
 PLTORB=       F     MOLPLT=       F     AIMPAC=       F     FRIEND=        
 NPRINT=       7     IREST =       0     GEOM  =INPUT   
 NORMF =       0     NORMP =       0     ITOL  =      20     ICUT  =       9
 INTTYP=BEST         GRDTYP=BEST         QMTTOL= 1.0E-06

     $SYSTEM OPTIONS
     ---------------
  REPLICATED MEMORY=     1000000 WORDS (ON EVERY NODE).
 DISTRIBUTED MEMDDI=           0 MILLION WORDS IN AGGREGATE,
 MEMDDI DISTRIBUTED OVER   1 PROCESSORS IS           0 WORDS/PROCESSOR.
 TOTAL MEMORY REQUESTED ON EACH PROCESSOR=     1000000 WORDS.
 TIMLIM=      525600.00 MINUTES, OR     365.0 DAYS.
 PARALL= F  BALTYP=  DLB     KDIAG=    0  COREFL= F
 MXSEQ2=     300 MXSEQ3=     150  mem10=         0

          ----------------
          PROPERTIES INPUT
          ----------------

     MOMENTS            FIELD           POTENTIAL          DENSITY
 IEMOM =       1   IEFLD =       0   IEPOT =       0   IEDEN =       0
 WHERE =COMASS     WHERE =NUCLEI     WHERE =NUCLEI     WHERE =NUCLEI  
 OUTPUT=BOTH       OUTPUT=BOTH       OUTPUT=BOTH       OUTPUT=BOTH    
 IEMINT=       0   IEFINT=       0                     IEDINT=       0
                                                       MORB  =       0
          EXTRAPOLATION IN EFFECT
          SOSCF IN EFFECT
 ORBITAL PRINTING OPTION: NPREO=     1    23     2     1

     -------------------------------
     INTEGRAL TRANSFORMATION OPTIONS
     -------------------------------
     NWORD  =            0
     CUTOFF = 1.0E-09     MPTRAN =       0
     DIRTRF =       F     AOINTS =DUP     

          ----------------------
          INTEGRAL INPUT OPTIONS
          ----------------------
 NOPK  =       1 NORDER=       0 SCHWRZ=       T

     ------------------------------------------
     THE POINT GROUP IS C1 , NAXIS= 0, ORDER= 1
     ------------------------------------------

     DIMENSIONS OF THE SYMMETRY SUBSPACES ARE
 A   =   23

 ..... DONE SETTING UP THE RUN .....
 STEP CPU TIME =     0.04 TOTAL CPU TIME =          0.0 (      0.0 MIN)
 TOTAL WALL CLOCK TIME=          0.1 SECONDS, CPU UTILIZATION IS    66.67%

          -----------------------------
          INTRINSIC REACTION COORDINATE
          -----------------------------
          PACE   =GS2     
          STRIDE = 0.10000 BOHR*SQRT(AMU)
          NPOINT =     100
          NEXTPT =       0
          STOTAL =  0.0000 BOHR*SQRT(AMU)
          SAB    =  0.0000 BOHR*SQRT(AMU)
          NPRT   =       0
          NPUN   =       0

          SADDLE =       T
          TSENGY =       T
          FORWRD =       T
          EVIB   = 0.00050 HARTREE
          FREQ   =     0.0 CM**-1

          STABLZ =       F
          ELBOW  =  175.00 DEGREES
          DELTA  = 0.02500 BOHR

          READQB =       F
          EB     =        0.0000000000 HARTREES
          GBNORM =        0.0000000000 HARTREES/SQRT(AMU)-BOHR

          GCUT   = 0.0000500 HARTREES/SQRT(AMU)-BOHR
          RCUT   = 0.0005000 BOHR
          ACUT   =    5.00 DEGREES
          MXOPT  =      20
          IHUPD  =       2

 ATOMIC MASSES USED (IN AMU) ARE
     N             14.0031
     C             12.0000
     CL            34.9689
     H              1.0078
     H              1.0078
     H              1.0078
     H              1.0078

 JUMP AWAY FROM SADDLE POINT WILL BE FOUND FROM THE INPUT HESSIAN MATRIX

 COMPUTING WAVEFUNCTION AT TRANSITION STATE...

          ********************
          1 ELECTRON INTEGRALS
          ********************
 ...... END OF ONE-ELECTRON INTEGRALS ......
 STEP CPU TIME =     0.01 TOTAL CPU TIME =          0.0 (      0.0 MIN)
 TOTAL WALL CLOCK TIME=          0.1 SECONDS, CPU UTILIZATION IS    55.56%

          -------------
          GUESS OPTIONS
          -------------
          GUESS =HUCKEL            NORB  =       0          NORDER=       0
          MIX   =       F          PRTMO =       F          PUNMO =       F
          TOLZ  = 1.0E-08          TOLE  = 1.0E-05
          SYMDEN=       F          PURIFY=       F

 INITIAL GUESS ORBITALS GENERATED BY HUCKEL   ROUTINE.
 HUCKEL GUESS REQUIRES     10848 WORDS.

 SYMMETRIES FOR INITIAL GUESS ORBITALS FOLLOW.   BOTH SET(S).
    17 ORBITALS ARE OCCUPIED (    7 CORE ORBITALS).
     8=A        9=A       10=A       11=A       12=A       13=A       14=A   
    15=A       16=A       17=A       18=A       19=A       20=A       21=A   
    22=A       23=A   
 ...... END OF INITIAL ORBITAL SELECTION ......
 STEP CPU TIME =     0.01 TOTAL CPU TIME =          0.1 (      0.0 MIN)
 TOTAL WALL CLOCK TIME=          0.1 SECONDS, CPU UTILIZATION IS    60.00%

                    ----------------------
                    AO INTEGRAL TECHNOLOGY
                    ----------------------
     S,P,L SHELL ROTATED AXIS INTEGRALS, REPROGRAMMED BY
        KAZUYA ISHIMURA (IMS) AND JOSE SIERRA (SYNSTAR).
     S,P,D,L SHELL ROTATED AXIS INTEGRALS PROGRAMMED BY
        KAZUYA ISHIMURA (INSTITUTE FOR MOLECULAR SCIENCE).
     S,P,D,F,G SHELL TO TOTAL QUARTET ANGULAR MOMENTUM SUM 5,
        ERIC PROGRAM BY GRAHAM FLETCHER (ELORET AND NASA ADVANCED
        SUPERCOMPUTING DIVISION, AMES RESEARCH CENTER).
     S,P,D,F,G,L SHELL GENERAL RYS QUADRATURE PROGRAMMED BY
        MICHEL DUPUIS (PACIFIC NORTHWEST NATIONAL LABORATORY).

          --------------------
          2 ELECTRON INTEGRALS
          --------------------

 THE -PK- OPTION IS OFF, THE INTEGRALS ARE NOT IN SUPERMATRIX FORM.
 STORING   15000 INTEGRALS/RECORD ON DISK, USING 12 BYTES/INTEGRAL.
 TWO ELECTRON INTEGRAL EVALUATION REQUIRES   89422 WORDS OF MEMORY.
 SCHWARZ INEQUALITY OVERHEAD:       271 INTEGRALS, T=        0.00
 II,JST,KST,LST =  1  1  1  1 NREC =         1 INTLOC =    1
 II,JST,KST,LST =  2  1  1  1 NREC =         1 INTLOC =    2
 II,JST,KST,LST =  3  1  1  1 NREC =         1 INTLOC =   34
 II,JST,KST,LST =  4  1  1  1 NREC =         1 INTLOC =  132
 II,JST,KST,LST =  5  1  1  1 NREC =         1 INTLOC = 1332
 II,JST,KST,LST =  6  1  1  1 NREC =         1 INTLOC = 1864
 II,JST,KST,LST =  7  1  1  1 NREC =         1 INTLOC = 5845
 II,JST,KST,LST =  8  1  1  1 NREC =         2 INTLOC =  308
 II,JST,KST,LST =  9  1  1  1 NREC =         2 INTLOC = 4116
 II,JST,KST,LST = 10  1  1  1 NREC =         2 INTLOC = 8530
 II,JST,KST,LST = 11  1  1  1 NREC =         2 INTLOC =13616
 SCHWARZ INEQUALITY TEST SKIPPED         249 INTEGRAL BLOCKS.
 TOTAL NUMBER OF NONZERO TWO-ELECTRON INTEGRALS =               34472
          3 INTEGRAL RECORDS WERE STORED ON DISK FILE  8.
  ...... END OF TWO-ELECTRON INTEGRALS .....
 STEP CPU TIME =     0.03 TOTAL CPU TIME =          0.1 (      0.0 MIN)
 TOTAL WALL CLOCK TIME=          0.1 SECONDS, CPU UTILIZATION IS    64.29%

          --------------------------
                 RHF SCF CALCULATION
          --------------------------

     NUCLEAR ENERGY =       102.2122145588
     MAXIT =   30     NPUNCH=    2
     EXTRAP=T  DAMP=F  SHIFT=F  RSTRCT=F  DIIS=F  DEM=F  SOSCF=T
     DENSITY MATRIX CONV=  1.00E-05
     SOSCF WILL OPTIMIZE     102 ORBITAL ROTATIONS, SOGTOL=   0.250
     MEMORY REQUIRED FOR RHF ITERS=     34433 WORDS.

 ITER EX DEM     TOTAL ENERGY        E CHANGE  DENSITY CHANGE     ORB. GRAD
   1  0  0     -547.5201421160  -547.5201421160   0.766177149   0.000000000
          ---------------START SECOND ORDER SCF---------------
   2  1  0     -547.8311446691    -0.3110025531   0.135478367   0.062957917
   3  2  0     -547.8501517599    -0.0190070908   0.060951314   0.021920883
   4  3  0     -547.8517397610    -0.0015880011   0.012695966   0.002800410
   5  4  0     -547.8517850183    -0.0000452573   0.000833725   0.000274671
   6  5  0     -547.8517860076    -0.0000009893   0.000306104   0.000110909
   7  6  0     -547.8517861031    -0.0000000954   0.000045650   0.000012691
   8  7  0     -547.8517861051    -0.0000000020   0.000014429   0.000004425
   9  8  0     -547.8517861053    -0.0000000002   0.000002362   0.000001048
  10  9  0     -547.8517861053    -0.0000000000   0.000000839   0.000000245

          -----------------
          DENSITY CONVERGED
          -----------------
     TIME TO FORM FOCK OPERATORS=       0.0 SECONDS (       0.0 SEC/ITER)
     TIME TO SOLVE SCF EQUATIONS=       0.0 SECONDS (       0.0 SEC/ITER)

 FINAL RHF ENERGY IS     -547.8517861053 AFTER  10 ITERATIONS

          ------------
          EIGENVECTORS
          ------------

                      1          2          3          4          5
                 -103.5111   -15.5673   -10.8437   -10.2144    -7.6566
                     A          A          A          A          A   
    1  N  1  S    0.000002   0.993275   0.000492  -0.000024   0.000020
    2  N  1  S   -0.000029   0.032645  -0.005069   0.000527  -0.000561
    3  N  1  X   -0.000004  -0.001170  -0.004097   0.000012  -0.000146
    4  N  1  Y   -0.000008  -0.000363  -0.000063   0.000044  -0.000081
    5  N  1  Z   -0.000007  -0.000246   0.000112   0.000043  -0.000067
    6  C  2  S   -0.000054   0.000407   0.992258   0.002008  -0.001364
    7  C  2  S    0.000367  -0.004306   0.033734  -0.007581   0.010591
    8  C  2  X    0.000134   0.003803  -0.001099  -0.002608   0.003406
    9  C  2  Y    0.000257   0.000025  -0.000346  -0.004897   0.006517
   10  C  2  Z    0.000213  -0.000131  -0.000241  -0.004058   0.005402
   11  CL 3  S    0.994486   0.000003   0.000222  -0.376807  -0.004012
   12  CL 3  S    0.015799  -0.000001  -0.000699   1.052625   0.011421
   13  CL 3  X   -0.000048   0.000023  -0.000197  -0.004243   0.424762
   14  CL 3  Y   -0.000078   0.000004  -0.000327  -0.005969   0.687699
   15  CL 3  Z   -0.000064   0.000003  -0.000270  -0.004902   0.567589
   16  CL 3  S   -0.001867   0.000178  -0.004420   0.046276  -0.005520
   17  CL 3  X    0.000096  -0.000200   0.001798  -0.002284   0.020645
   18  CL 3  Y    0.000164  -0.000063   0.003012  -0.003748   0.033722
   19  CL 3  Z    0.000135  -0.000045   0.002488  -0.003094   0.027839
   20  H  4  S    0.000016   0.000241  -0.007146  -0.000249   0.000181
   21  H  5  S    0.000015  -0.005833  -0.000464  -0.000310   0.000199
   22  H  6  S    0.000009  -0.006000  -0.000474  -0.000176   0.000201
   23  H  7  S    0.000014  -0.005830  -0.000463  -0.000295   0.000189

                      6          7          8          9         10
                   -7.6523    -7.6517    -1.2594    -0.9429    -0.7611
                     A          A          A          A          A   
    1  N  1  S    0.000039  -0.000000  -0.225774   0.022140  -0.002583
    2  N  1  S   -0.000802   0.000002   0.779648  -0.082609   0.017649
    3  N  1  X   -0.000211   0.000009  -0.053575   0.140024   0.469288
    4  N  1  Y    0.000372  -0.000208  -0.013636   0.031635  -0.197991
    5  N  1  Z    0.000318   0.000250  -0.008847   0.021248  -0.184969
    6  C  2  S    0.000051   0.000000  -0.049282  -0.095315  -0.138090
    7  C  2  S   -0.000461  -0.000001   0.096049   0.249958   0.399281
    8  C  2  X   -0.003305  -0.000095  -0.048962   0.022625  -0.083534
    9  C  2  Y    0.000902   0.001971   0.001301   0.055433  -0.079620
   10  C  2  Z    0.000901  -0.002317   0.003127   0.046310  -0.063747
   11  CL 3  S   -0.000192   0.000001   0.004255   0.080074  -0.030436
   12  CL 3  S    0.000543  -0.000002  -0.014343  -0.265048   0.099102
   13  CL 3  X    0.892618   0.030701   0.003894   0.018277   0.007756
   14  CL 3  Y   -0.306238  -0.640647   0.003680   0.023315   0.017303
   15  CL 3  Z   -0.296843   0.753242   0.002970   0.019069   0.014387
   16  CL 3  S    0.000068   0.000001   0.040301   0.861039  -0.356013
   17  CL 3  X    0.037170   0.001276  -0.009988  -0.054737  -0.022645
   18  CL 3  Y   -0.012894  -0.026629  -0.009662  -0.065664  -0.052777
   19  CL 3  Z   -0.012482   0.031308  -0.007810  -0.053565  -0.043924
   20  H  4  S    0.000771   0.000002   0.016929   0.060223   0.185714
   21  H  5  S    0.000348  -0.000257   0.117285  -0.033963  -0.190416
   22  H  6  S    0.000142   0.000002   0.127665  -0.055325   0.093592
   23  H  7  S    0.000330   0.000251   0.117121  -0.034486  -0.189909

                     11         12         13         14         15
                   -0.7133    -0.7110    -0.5370    -0.3917    -0.3352
                     A          A          A          A          A   
    1  N  1  S   -0.012639   0.000528  -0.043630  -0.015349   0.000022
    2  N  1  S    0.060425  -0.002524   0.207656   0.074604  -0.000132
    3  N  1  X    0.245832   0.011761   0.452617   0.127316  -0.001506
    4  N  1  Y    0.437669  -0.435183  -0.036227   0.077834   0.034050
    5  N  1  Z    0.387457   0.486413  -0.050090   0.060662  -0.040459
    6  C  2  S   -0.063384   0.002519   0.090337   0.031595   0.000032
    7  C  2  S    0.193048  -0.007707  -0.295803  -0.142271  -0.000102
    8  C  2  X   -0.072179   0.005482  -0.322196  -0.088647   0.010027
    9  C  2  Y    0.021870  -0.065626   0.140303  -0.309718  -0.217211
   10  C  2  Z    0.025529   0.076280   0.131587  -0.259421   0.255977
   11  CL 3  S   -0.023900   0.000798   0.010730   0.018211  -0.000004
   12  CL 3  S    0.077457  -0.002585  -0.033946  -0.055524   0.000013
   13  CL 3  X    0.019774  -0.000838   0.021360  -0.103764  -0.007802
   14  CL 3  Y    0.015783   0.004115  -0.043624  -0.143794   0.169120
   15  CL 3  Z    0.012320  -0.005992  -0.037859  -0.118163  -0.198986
   16  CL 3  S   -0.285388   0.009539   0.141448   0.268877  -0.000055
   17  CL 3  X   -0.062487   0.002654  -0.074159   0.350850   0.027703
   18  CL 3  Y   -0.047805  -0.013175   0.142040   0.482708  -0.600491
   19  CL 3  Z   -0.037167   0.019002   0.123449   0.396575   0.706544
   20  H  4  S    0.041192  -0.002097  -0.430281   0.244016  -0.000129
   21  H  5  S    0.144544   0.360114  -0.115508   0.031164  -0.070126
   22  H  6  S   -0.436075   0.017060  -0.001744  -0.126008  -0.000745
   23  H  7  S    0.116134  -0.370655  -0.114333   0.029438   0.070955

                     16         17         18         19         20
                   -0.3045    -0.1139     0.4838     0.4990     0.5312
                     A          A          A          A          A   
    1  N  1  S   -0.021878   0.000027  -0.186218  -0.041149   0.001946
    2  N  1  S    0.113746  -0.000161   1.242692   0.291710  -0.040758
    3  N  1  X    0.121966   0.000465  -0.290703  -0.393450   0.326212
    4  N  1  Y    0.013455  -0.004472  -0.049040   0.324706   0.648485
    5  N  1  Z    0.006726   0.005611  -0.034742   0.299129   0.511861
    6  C  2  S    0.012128   0.000058   0.093720  -0.138287   0.132143
    7  C  2  S   -0.038164  -0.000233  -0.473624   0.718939  -0.716359
    8  C  2  X    0.002501   0.027949   0.103310   0.204618   0.033419
    9  C  2  Y    0.042805  -0.602830  -0.143334   0.377346  -0.064615
   10  C  2  Z    0.036364   0.710153  -0.124333   0.311046  -0.051320
   11  CL 3  S    0.000856   0.000003   0.009928  -0.019493   0.009191
   12  CL 3  S   -0.003048  -0.000011  -0.028899   0.055497  -0.026169
   13  CL 3  X   -0.254621   0.003724   0.045736  -0.065892   0.029258
   14  CL 3  Y    0.088011  -0.079556   0.053167  -0.119158   0.055287
   15  CL 3  Z    0.084817   0.093586   0.043420  -0.098841   0.046074
   16  CL 3  S    0.006736   0.000015   0.167310  -0.342799   0.162464
   17  CL 3  X    0.912545  -0.013932  -0.184192   0.268959  -0.122532
   18  CL 3  Y   -0.313725   0.297762  -0.215135   0.485118  -0.226035
   19  CL 3  Z   -0.302537  -0.350261  -0.175728   0.402336  -0.188236
   20  H  4  S   -0.141186   0.000109   0.191651  -0.184187   0.410676
   21  H  5  S   -0.021419  -0.201200  -0.605474  -0.516194  -0.241945
   22  H  6  S   -0.037216  -0.002014  -0.690305   0.295886   0.937964
   23  H  7  S   -0.021449   0.203198  -0.613881  -0.498853  -0.261102

                     21         22         23
                    0.5469     0.7088     0.9112
                     A          A          A   
    1  N  1  S    0.000492  -0.064824   0.012648
    2  N  1  S   -0.002949   0.417715  -0.091805
    3  N  1  X   -0.037961   0.746435  -0.122225
    4  N  1  Y    0.634698  -0.171000  -0.212373
    5  N  1  Z   -0.768809  -0.173315  -0.174959
    6  C  2  S   -0.003517   0.077086   0.077464
    7  C  2  S    0.018962  -0.435317  -0.557917
    8  C  2  X    0.008556   1.015968  -0.539331
    9  C  2  Y   -0.136380   0.291734   0.745632
   10  C  2  Z    0.169929   0.206723   0.653996
   11  CL 3  S   -0.000362  -0.008636  -0.006018
   12  CL 3  S    0.001034   0.023414   0.015361
   13  CL 3  X   -0.000819   0.001076  -0.040103
   14  CL 3  Y   -0.010895  -0.052826  -0.021590
   15  CL 3  Z    0.008759  -0.044947  -0.016774
   16  CL 3  S   -0.006359  -0.166500  -0.128390
   17  CL 3  X    0.003436  -0.000872   0.173245
   18  CL 3  Y    0.043722   0.224214   0.098662
   19  CL 3  Z   -0.034782   0.190626   0.077048
   20  H  4  S   -0.009533   0.101306   1.195175
   21  H  5  S    0.836753   0.192853   0.067343
   22  H  6  S   -0.004391  -0.117508  -0.187411
   23  H  7  S   -0.834733   0.193019   0.064981
 ...... END OF RHF CALCULATION ......
 STEP CPU TIME =     0.04 TOTAL CPU TIME =          0.1 (      0.0 MIN)
 TOTAL WALL CLOCK TIME=          0.2 SECONDS, CPU UTILIZATION IS    68.42%

     ----------------------------------------------------------------
     PROPERTY VALUES FOR THE RHF   SELF-CONSISTENT FIELD WAVEFUNCTION
     ----------------------------------------------------------------

          -----------------
          ENERGY COMPONENTS
          -----------------

         WAVEFUNCTION NORMALIZATION =       1.0000000000

                ONE ELECTRON ENERGY =    -961.7938128696
                TWO ELECTRON ENERGY =     311.7298122055
           NUCLEAR REPULSION ENERGY =     102.2122145588
                                      ------------------
                       TOTAL ENERGY =    -547.8517861053

 ELECTRON-ELECTRON POTENTIAL ENERGY =     311.7298122055
  NUCLEUS-ELECTRON POTENTIAL ENERGY =   -1501.7621380602
   NUCLEUS-NUCLEUS POTENTIAL ENERGY =     102.2122145588
                                      ------------------
             TOTAL POTENTIAL ENERGY =   -1087.8201112960
               TOTAL KINETIC ENERGY =     539.9683251907
                 VIRIAL RATIO (V/T) =       2.0145998581

          ---------------------------------------
          MULLIKEN AND LOWDIN POPULATION ANALYSES
          ---------------------------------------

     ATOMIC MULLIKEN POPULATION IN EACH MOLECULAR ORBITAL

                      1          2          3          4          5

                  2.000000   2.000000   2.000000   2.000000   2.000000

    1            -0.000000   2.002697  -0.000634   0.000001   0.000001
    2             0.000006  -0.000575   2.002182  -0.001063  -0.000800
    3             1.999994   0.000001  -0.000447   2.001065   2.000801
    4             0.000000   0.000002  -0.001082  -0.000002  -0.000001
    5             0.000000  -0.000695  -0.000006  -0.000001  -0.000000
    6             0.000000  -0.000735  -0.000008  -0.000000  -0.000000
    7             0.000000  -0.000694  -0.000006  -0.000000  -0.000000

                      6          7          8          9         10

                  2.000000   2.000000   2.000000   2.000000   2.000000

    1             0.000000   0.000000   1.488515   0.086270   0.854816
    2            -0.000044  -0.000037   0.098348   0.290991   0.513167
    3             2.000043   2.000037   0.008248   1.576755   0.216991
    4             0.000001   0.000000   0.003959   0.024340   0.162762
    5            -0.000000  -0.000000   0.128037   0.004501   0.112486
    6            -0.000000   0.000000   0.145143   0.012478   0.027853
    7            -0.000000  -0.000000   0.127751   0.004665   0.111926

                     11         12         13         14         15

                  2.000000   2.000000   2.000000   2.000000   2.000000

    1             1.117648   1.194429   0.475836   0.048405   0.004394
    2             0.114729   0.048268   0.735427   0.546323   0.287814
    3             0.145047   0.002206   0.136111   1.233125   1.693447
    4             0.005941   0.000017   0.591992   0.144656   0.000000
    5             0.059008   0.366197   0.030559   0.001325   0.007079
    6             0.519554   0.000792   0.000083   0.024994   0.000001
    7             0.038074   0.388092   0.029993   0.001171   0.007265

                     16         17

                  2.000000   2.000000

    1             0.030984   0.000142
    2             0.012185   1.603144
    3             1.911153   0.302090
    4             0.041009   0.000000
    5             0.001002   0.046825
    6             0.002665   0.000004
    7             0.001001   0.047795

               ----- POPULATIONS IN EACH AO -----
                             MULLIKEN      LOWDIN
              1  N  1  S      1.99488     1.99096
              2  N  1  S      1.55181     1.27304
              3  N  1  X      1.35978     1.33167
              4  N  1  Y      1.19872     1.19506
              5  N  1  Z      1.19831     1.19412
              6  C  2  S      1.99192     1.98246
              7  C  2  S      1.05118     1.01384
              8  C  2  X      0.51689     0.61830
              9  C  2  Y      1.24649     1.28494
             10  C  2  Z      1.44359     1.47177
             11  CL 3  S      1.99997     1.99987
             12  CL 3  S      1.99867     1.99855
             13  CL 3  X      1.99783     1.99615
             14  CL 3  Y      1.99420     1.98961
             15  CL 3  Z      1.99600     1.99285
             16  CL 3  S      1.94875     1.90485
             17  CL 3  X      1.87484     1.87440
             18  CL 3  Y      1.65433     1.65655
             19  CL 3  Z      1.76209     1.76351
             20  H  4  S      0.97359     0.99611
             21  H  5  S      0.75632     0.83200
             22  H  6  S      0.73282     0.80675
             23  H  7  S      0.75703     0.83268

          ----- MULLIKEN ATOMIC OVERLAP POPULATIONS -----
          (OFF-DIAGONAL ELEMENTS NEED TO BE MULTIPLIED BY 2)

             1           2           3           4           5

    1    6.0923311
    2    0.2808962   5.3984646
    3   -0.0218450   0.2391944  17.0245719
    4   -0.0237580   0.4059090  -0.0169066   0.6095514
    5    0.3232619  -0.0287375   0.0003222   0.0012816   0.5238969
    6    0.3295588  -0.0168078   0.0009722  -0.0037517  -0.0243074
    7    0.3230574  -0.0288560   0.0003580   0.0012684  -0.0393997

             6           7

    6    0.4717565
    7   -0.0245978   0.5252027

          TOTAL MULLIKEN AND LOWDIN ATOMIC POPULATIONS
       ATOM         MULL.POP.    CHARGE          LOW.POP.     CHARGE
    1 N             7.303502   -0.303502         6.984838    0.015162
    2 C             6.250063   -0.250063         6.371305   -0.371305
    3 CL           17.226667   -0.226667        17.176321   -0.176321
    4 H             0.973594    0.026406         0.996106    0.003894
    5 H             0.756318    0.243682         0.831999    0.168001
    6 H             0.732823    0.267177         0.806747    0.193253
    7 H             0.757033    0.242967         0.832683    0.167317

          -------------------------------
          BOND ORDER AND VALENCE ANALYSIS     BOND ORDER THRESHOLD=0.050
          -------------------------------

                   BOND                       BOND                       BOND
  ATOM PAIR DIST  ORDER      ATOM PAIR DIST  ORDER      ATOM PAIR DIST  ORDER
    1   2  1.478  0.779        1   5  1.050  0.881        1   6  1.038  0.908
    1   7  1.050  0.881        2   3  1.763  0.929        2   4  1.056  0.965

                       TOTAL       BONDED        FREE
      ATOM            VALENCE     VALENCE     VALENCE
    1 N                 3.483       3.483      -0.000
    2 C                 2.753       2.753       0.000
    3 CL                0.982       0.982       0.000
    4 H                 0.999       0.999       0.000
    5 H                 0.941       0.941      -0.000
    6 H                 0.929       0.929       0.000
    7 H                 0.941       0.941      -0.000

          ---------------------
          ELECTROSTATIC MOMENTS
          ---------------------

 POINT   1           X           Y           Z (BOHR)    CHARGE
               -11.050397    6.514103    0.533484        0.00 (A.U.)
         DX          DY          DZ         /D/  (DEBYE)
    -6.384991   -1.932936   -1.374969    6.811379
 ...... END OF PROPERTY EVALUATION ......
 STEP CPU TIME =     0.02 TOTAL CPU TIME =          0.2 (      0.0 MIN)
 TOTAL WALL CLOCK TIME=          0.2 SECONDS, CPU UTILIZATION IS    75.00%


 JUMPING OFF SADDLE POINT ALONG THE IMAGINARY NORMAL MODE...

 $HESS GROUP READ FROM CARDS
 ENERGY IS     -547.8517861053 E(NUC) IS      102.2122145588                     
 INITIAL DISPLACEMENT=  0.05 ALONG MODE WITH FREQUENCY=    1086.688 I CM**-1
 THE COMPONENTS OF THE DISPLACEMENT ARE (BOHR) -
    0.000050  -0.001133   0.001345
   -0.000221   0.004856  -0.005727
    0.000018  -0.000394   0.000462
    0.001250  -0.026869   0.031672
   -0.002885  -0.002040   0.000573
   -0.000013   0.000599  -0.000742
    0.002963  -0.000104   0.001951

 *********************************************
 ***** STARTING CONSTRAINED OPTIMIZATION *****
 *** TO FIND THE NEXT REACTION PATH POINT ****
 *********************************************
 CONSTRAINED OPTIMIZATION POINT   1 FOR PATH POINT   1
 COORDINATES OF SYMMETRY UNIQUE ATOMS (ANGS)
   ATOM   CHARGE       X              Y              Z
 ------------------------------------------------------------
 N           7.0  -7.3104830145   2.7729567024  -0.2294031093
 C           6.0  -5.8339534954   2.8020646402  -0.2771697996
 CL         17.0  -5.1192535072   4.0388758593   0.7567653414
 H           1.0  -5.3303539958   2.0698908128  -0.8499240431
 H           1.0  -7.7435589173   2.5794967152   0.7076563632
 H           1.0  -7.6350809000   2.0110245709  -0.8543443452
 H           1.0  -7.7909952011   3.6430129786  -0.5650970199
 ...... END OF ONE-ELECTRON INTEGRALS ......
 STEP CPU TIME =     0.01 TOTAL CPU TIME =          0.2 (      0.0 MIN)
 TOTAL WALL CLOCK TIME=          0.2 SECONDS, CPU UTILIZATION IS    76.19%
 TOTAL NUMBER OF NONZERO TWO-ELECTRON INTEGRALS =               34471
          3 INTEGRAL RECORDS WERE STORED ON DISK FILE  8.
  ...... END OF TWO-ELECTRON INTEGRALS .....
 STEP CPU TIME =     0.02 TOTAL CPU TIME =          0.2 (      0.0 MIN)
 TOTAL WALL CLOCK TIME=          0.2 SECONDS, CPU UTILIZATION IS    78.26%

          --------------------------
                 RHF SCF CALCULATION
          --------------------------
     DENSITY MATRIX CONV=  1.00E-05

 ITER EX DEM     TOTAL ENERGY        E CHANGE  DENSITY CHANGE     ORB. GRAD
          ---------------START SECOND ORDER SCF---------------
   1  0  0     -547.8515315369  -547.8515315369   0.024717700   0.008837627
   2  1  0     -547.8519400070    -0.0004084701   0.014998453   0.003227515
   3  2  0     -547.8520090670    -0.0000690600   0.000364632   0.000124307
   4  3  0     -547.8520093268    -0.0000002598   0.000266614   0.000060233
   5  4  0     -547.8520093848    -0.0000000580   0.000060294   0.000020541
   6  5  0     -547.8520093879    -0.0000000031   0.000042694   0.000010083
   7  6  0     -547.8520093888    -0.0000000009   0.000005291   0.000001529
   8  7  0     -547.8520093888    -0.0000000000   0.000002077   0.000000432

          -----------------
          DENSITY CONVERGED
          -----------------
     TIME TO FORM FOCK OPERATORS=       0.0 SECONDS (       0.0 SEC/ITER)
     TIME TO SOLVE SCF EQUATIONS=       0.0 SECONDS (       0.0 SEC/ITER)

 FINAL RHF ENERGY IS     -547.8520093888 AFTER   8 ITERATIONS
 ...... END OF RHF CALCULATION ......
 STEP CPU TIME =     0.02 TOTAL CPU TIME =          0.2 (      0.0 MIN)
 TOTAL WALL CLOCK TIME=          0.3 SECONDS, CPU UTILIZATION IS    76.92%
 ..... END OF 1-ELECTRON GRADIENT ......
 STEP CPU TIME =     0.01 TOTAL CPU TIME =          0.2 (      0.0 MIN)
 TOTAL WALL CLOCK TIME=          0.3 SECONDS, CPU UTILIZATION IS    80.77%
 ...... END OF 2-ELECTRON GRADIENT ......
 STEP CPU TIME =     0.02 TOTAL CPU TIME =          0.2 (      0.0 MIN)
 TOTAL WALL CLOCK TIME=          0.3 SECONDS, CPU UTILIZATION IS    82.14%

 UNITS ARE HARTREE/BOHR    E'X               E'Y               E'Z 
    1 N                0.000327769       0.001459528      -0.001693853
    2 C               -0.000625844      -0.004251891       0.006896039
    3 CL               0.000016295       0.001248794      -0.001403932
    4 H                0.000495137       0.001485884      -0.003599782
    5 H                0.000192355       0.000147143       0.000130828
    6 H               -0.000046232      -0.000258985      -0.000069136
    7 H               -0.000359480       0.000169527      -0.000260164

 CURRENT OPTIMIZATION POINT :
 ENERGY                                 =  -547.8520094 HARTREE
 MASS WEIGHTED TANGENT GRADIENT NORM    =     0.0014569 HARTREE/BOHR-SQRT(AMU)
 NEXT GEOMETRY STEP HAS PREDICTED ANGLE =         2.740 DEGREES
 AND CARTESIAN RMS DISPLACEMENT         =     0.0021580 BOHR

 CONSTRAINED OPTIMIZATION POINT   2 FOR PATH POINT   1
 COORDINATES OF SYMMETRY UNIQUE ATOMS (ANGS)
   ATOM   CHARGE       X              Y              Z
 ------------------------------------------------------------
 N           7.0  -7.3105376610   2.7729569774  -0.2293908375
 C           6.0  -5.8338313298   2.8019976161  -0.2772159220
 CL         17.0  -5.1192669476   4.0388711129   0.7567567872
 H           1.0  -5.3307439743   2.0706540766  -0.8492982642
 H           1.0  -7.7434988788   2.5795116867   0.7075033708
 H           1.0  -7.6351515147   2.0112732604  -0.8542887526
 H           1.0  -7.7908236280   3.6429449647  -0.5649499246
 ...... END OF ONE-ELECTRON INTEGRALS ......
 STEP CPU TIME =     0.00 TOTAL CPU TIME =          0.2 (      0.0 MIN)
 TOTAL WALL CLOCK TIME=          0.3 SECONDS, CPU UTILIZATION IS    79.31%
 TOTAL NUMBER OF NONZERO TWO-ELECTRON INTEGRALS =               34471
          3 INTEGRAL RECORDS WERE STORED ON DISK FILE  8.
  ...... END OF TWO-ELECTRON INTEGRALS .....
 STEP CPU TIME =     0.02 TOTAL CPU TIME =          0.2 (      0.0 MIN)
 TOTAL WALL CLOCK TIME=          0.3 SECONDS, CPU UTILIZATION IS    83.33%

          --------------------------
                 RHF SCF CALCULATION
          --------------------------
     DENSITY MATRIX CONV=  1.00E-05

 ITER EX DEM     TOTAL ENERGY        E CHANGE  DENSITY CHANGE     ORB. GRAD
          ---------------START SECOND ORDER SCF---------------
   1  0  0     -547.8520110035  -547.8520110035   0.000162025   0.000110959
   2  1  0     -547.8520110601    -0.0000000566   0.000082278   0.000019319
   3  2  0     -547.8520110657    -0.0000000056   0.000013736   0.000009561
   4  3  0     -547.8520110659    -0.0000000002   0.000002846   0.000001210
   5  4  0     -547.8520110659    -0.0000000000   0.000000942   0.000000622

          -----------------
          DENSITY CONVERGED
          -----------------
     TIME TO FORM FOCK OPERATORS=       0.0 SECONDS (       0.0 SEC/ITER)
     TIME TO SOLVE SCF EQUATIONS=       0.0 SECONDS (       0.0 SEC/ITER)

 FINAL RHF ENERGY IS     -547.8520110659 AFTER   5 ITERATIONS
 ...... END OF RHF CALCULATION ......
 STEP CPU TIME =     0.01 TOTAL CPU TIME =          0.3 (      0.0 MIN)
 TOTAL WALL CLOCK TIME=          0.3 SECONDS, CPU UTILIZATION IS    81.25%
 ..... END OF 1-ELECTRON GRADIENT ......
 STEP CPU TIME =     0.01 TOTAL CPU TIME =          0.3 (      0.0 MIN)
 TOTAL WALL CLOCK TIME=          0.3 SECONDS, CPU UTILIZATION IS    81.82%
 ...... END OF 2-ELECTRON GRADIENT ......
 STEP CPU TIME =     0.02 TOTAL CPU TIME =          0.3 (      0.0 MIN)
 TOTAL WALL CLOCK TIME=          0.3 SECONDS, CPU UTILIZATION IS    85.29%

 UNITS ARE HARTREE/BOHR    E'X               E'Y               E'Z 
    1 N                0.000064739       0.001414079      -0.001706980
    2 C               -0.000009527      -0.005073720       0.006241132
    3 CL               0.000023069       0.001257346      -0.001394934
    4 H               -0.000045239       0.002295782      -0.002969544
    5 H                0.000244821       0.000183380      -0.000025093
    6 H                0.000013061      -0.000096831       0.000058275
    7 H               -0.000290924       0.000019962      -0.000202856

 ANGLE TO PREVIOUS OPTIMIZATION POINT IS   2.740
 LINEAR INTERPOLATION GIVES ANGLE          2.743

 CURRENT OPTIMIZATION POINT :
 ENERGY                                 =  -547.8520111 HARTREE
 MASS WEIGHTED TANGENT GRADIENT NORM    =     0.0000104 HARTREE/BOHR-SQRT(AMU)
 NEXT GEOMETRY STEP HAS PREDICTED ANGLE =         0.078 DEGREES
 AND CARTESIAN RMS DISPLACEMENT         =     0.0000626 BOHR

 *******************************************
 ***** END OF CONSTRAINED OPTIMIZATION *****
 *******************************************

 ANGLE BETWEEN GRADIENTS AT CURRENT AND PREVIOUS IRC POINT =   2.743
 ENERGY WAS LOWERED BY      0.0000016771 HARTREE DURING OPTIMIZATION

 ***** NEXT POINT ON IRC FOUND *****
 STEP DISTANCE IS   0.09997 SQRT(AMU)-BOHR)

1         POINT   1 ON THE REACTION PATH
          ******************************
          AT PATH DISTANCE STOTAL =   0.09997     SQRT(AMU)-BOHR
          TOTAL ENERGY            =  -547.8520111 HARTREE
            2 CONSTRAINED OPTIMIZATION STEPS WERE PERFORMED
  
 COORDINATES OF ALL ATOMS ARE (ANGS)
   ATOM   CHARGE       X              Y              Z
 ------------------------------------------------------------
 N           7.0  -7.3105376610   2.7729569774  -0.2293908375
 C           6.0  -5.8338313298   2.8019976161  -0.2772159220
 CL         17.0  -5.1192669476   4.0388711129   0.7567567872
 H           1.0  -5.3307439743   2.0706540766  -0.8492982642
 H           1.0  -7.7434988788   2.5795116867   0.7075033708
 H           1.0  -7.6351515147   2.0112732604  -0.8542887526
 H           1.0  -7.7908236280   3.6429449647  -0.5649499246
  

          INTERNUCLEAR DISTANCES (ANGS.)
          ------------------------------

                1 N          2 C          3 CL         4 H          5 H     

   1 N       0.0000000    1.4777659 *  2.7160068 *  2.1902278 *  1.0500701 *
   2 C       1.4777659 *  0.0000000    1.7633938 *  1.0560485 *  2.1600931 *
   3 CL      2.7160068 *  1.7633938 *  0.0000000    2.5491202 *  3.0031232  
   4 H       2.1902278 *  1.0560485 *  2.5491202 *  0.0000000    2.9161539 *
   5 H       1.0500701 *  2.1600931 *  3.0031232    2.9161539 *  0.0000000  
   6 H       1.0373204 *  2.0501250 *  3.6105811    2.3051779 *  1.6654815 *
   7 H       1.0488821 *  2.1493725 *  3.0068058    2.9334186 *  1.6589959 *

                6 H          7 H     

   1 N       1.0373204 *  1.0488821 *
   2 C       2.0501250 *  2.1493725 *
   3 CL      3.6105811    3.0068058  
   4 H       2.3051779 *  2.9334186 *
   5 H       1.6654815 *  1.6589959 *
   6 H       0.0000000    1.6644228 *
   7 H       1.6644228 *  0.0000000  

  * ... LESS THAN  3.000


          CURRENT CARTESIAN GRADIENT
          ATOM               DE/DX          DE/DY          DE/DZ
          -----------------------------------------------------------
          N                0.0000644655   0.0014140320  -0.0017069940
          C               -0.0000088854  -0.0050745748   0.0062404505
          CL               0.0000230761   0.0012573552  -0.0013949247
          H               -0.0000458015   0.0022966252  -0.0029688879
          H                0.0002448759   0.0001834179  -0.0000252551
          H                0.0000131232  -0.0000966620   0.0000584074
          H               -0.0002908526   0.0000198062  -0.0002027964
  
 CONVERGED ORBITALS AT IRC POINT                    1

                      1          2          3          4          5
                 -103.5111   -15.5672   -10.8440   -10.2144    -7.6566
                     A          A          A          A          A   
    1  N  1  S    0.000002   0.993275  -0.000493   0.000024   0.000020
    2  N  1  S   -0.000029   0.032649   0.005068  -0.000527  -0.000562
    3  N  1  X   -0.000004  -0.001174   0.004098  -0.000012  -0.000147
    4  N  1  Y   -0.000008  -0.000338   0.000054  -0.000045  -0.000080
    5  N  1  Z   -0.000007  -0.000276  -0.000099  -0.000041  -0.000067
    6  C  2  S   -0.000054   0.000407  -0.992259  -0.002008  -0.001365
    7  C  2  S    0.000367  -0.004304  -0.033730   0.007582   0.010592
    8  C  2  X    0.000134   0.003801   0.001088   0.002609   0.003407
    9  C  2  Y    0.000256   0.000049   0.000608   0.004878   0.006475
   10  C  2  Z    0.000214  -0.000159  -0.000080   0.004079   0.005449
   11  CL 3  S    0.994486   0.000003  -0.000222   0.376807  -0.004013
   12  CL 3  S    0.015799  -0.000001   0.000699  -1.052625   0.011423
   13  CL 3  X   -0.000048   0.000023   0.000197   0.004244   0.424764
   14  CL 3  Y   -0.000078   0.000004   0.000328   0.006010   0.688845
   15  CL 3  Z   -0.000064   0.000003   0.000268   0.004855   0.566196
   16  CL 3  S   -0.001867   0.000178   0.004421  -0.046276  -0.005519
   17  CL 3  X    0.000096  -0.000200  -0.001798   0.002284   0.020646
   18  CL 3  Y    0.000163  -0.000064  -0.003021   0.003739   0.033751
   19  CL 3  Z    0.000136  -0.000045  -0.002479   0.003105   0.027802
   20  H  4  S    0.000016   0.000242   0.007149   0.000248   0.000179
   21  H  5  S    0.000015  -0.005827   0.000454   0.000309   0.000201
   22  H  6  S    0.000009  -0.006002   0.000473   0.000176   0.000202
   23  H  7  S    0.000014  -0.005841   0.000472   0.000296   0.000187

                      6          7          8          9         10
                   -7.6523    -7.6518    -1.2596    -0.9430    -0.7612
                     A          A          A          A          A   
    1  N  1  S   -0.000039  -0.000001   0.225774  -0.022144  -0.002588
    2  N  1  S    0.000801   0.000013  -0.779617   0.082618   0.017685
    3  N  1  X    0.000210   0.000014   0.053645  -0.140109   0.469216
    4  N  1  Y   -0.000361  -0.000220   0.013429  -0.031439  -0.200630
    5  N  1  Z   -0.000331   0.000240   0.009053  -0.021475  -0.181952
    6  C  2  S   -0.000051  -0.000003   0.049259   0.095365  -0.138057
    7  C  2  S    0.000461   0.000040  -0.096028  -0.250136   0.399262
    8  C  2  X    0.003305  -0.000042   0.048882  -0.022694  -0.083305
    9  C  2  Y   -0.000934   0.002033  -0.000440  -0.053330  -0.083997
   10  C  2  Z   -0.000860  -0.002268  -0.004169  -0.048822  -0.058425
   11  CL 3  S    0.000192   0.000017  -0.004255  -0.080060  -0.030462
   12  CL 3  S   -0.000544  -0.000049   0.014341   0.265001   0.099185
   13  CL 3  X   -0.892874   0.021997  -0.003894  -0.018281   0.007748
   14  CL 3  Y    0.313051  -0.636113  -0.003686  -0.023528   0.017343
   15  CL 3  Z    0.288860   0.757377  -0.002964  -0.018851   0.014336
   16  CL 3  S   -0.000068  -0.000030  -0.040290  -0.860860  -0.356323
   17  CL 3  X   -0.037181   0.000931   0.009986   0.054748  -0.022613
   18  CL 3  Y    0.013178  -0.026411   0.009671   0.066423  -0.052827
   19  CL 3  Z    0.012149   0.031505   0.007794   0.052771  -0.043834
   20  H  4  S   -0.000768   0.000048  -0.016920  -0.060297   0.185761
   21  H  5  S   -0.000340  -0.000260  -0.117170   0.034105  -0.188952
   22  H  6  S   -0.000142  -0.000002  -0.127662   0.055335   0.093686
   23  H  7  S   -0.000337   0.000248  -0.117267   0.034372  -0.191284

                     11         12         13         14         15
                   -0.7134    -0.7111    -0.5370    -0.3918    -0.3352
                     A          A          A          A          A   
    1  N  1  S   -0.012603   0.000925  -0.043657   0.015340   0.000139
    2  N  1  S    0.060255  -0.004632   0.207834  -0.074566  -0.000733
    3  N  1  X    0.243201  -0.035143   0.453139  -0.127166  -0.003132
    4  N  1  Y    0.484196   0.381196  -0.040391  -0.079496   0.032061
    5  N  1  Z    0.329530  -0.528635  -0.044873  -0.058550  -0.041978
    6  C  2  S   -0.063346   0.003730   0.090274  -0.031647   0.002517
    7  C  2  S    0.192952  -0.011547  -0.295613   0.142494  -0.009534
    8  C  2  X   -0.072359   0.000635  -0.322496   0.088202   0.007482
    9  C  2  Y    0.027284   0.062826   0.148522   0.318647  -0.207203
   10  C  2  Z    0.018837  -0.078636   0.121328   0.248531   0.263938
   11  CL 3  S   -0.023858   0.001829   0.010738  -0.018208  -0.000322
   12  CL 3  S    0.077322  -0.005927  -0.033970   0.055514   0.000995
   13  CL 3  X    0.019737  -0.001310   0.021383   0.103857   0.000046
   14  CL 3  Y    0.015172  -0.005874  -0.044298   0.140472   0.170886
   15  CL 3  Z    0.012964   0.004543  -0.037108   0.121989  -0.197649
   16  CL 3  S   -0.284878   0.021863   0.141572  -0.268802  -0.004544
   17  CL 3  X   -0.062368   0.004156  -0.074247  -0.351177   0.000038
   18  CL 3  Y   -0.045845   0.018500   0.144265  -0.471224  -0.606417
   19  CL 3  Z   -0.039243  -0.014618   0.120955  -0.409826   0.702100
   20  H  4  S    0.041084  -0.004968  -0.430211  -0.244169  -0.004268
   21  H  5  S    0.101639  -0.376275  -0.111501  -0.027607  -0.071853
   22  H  6  S   -0.434997   0.034360  -0.001874   0.125895   0.003677
   23  H  7  S    0.158278   0.352847  -0.118268  -0.032948   0.068957

                     16         17         18         19         20
                   -0.3046    -0.1140     0.4840     0.4989     0.5314
                     A          A          A          A          A   
    1  N  1  S   -0.021881  -0.001761  -0.186170  -0.041473  -0.001777
    2  N  1  S    0.113771   0.009690   1.242573   0.293962   0.039553
    3  N  1  X    0.122017   0.006848  -0.289797  -0.393395  -0.323177
    4  N  1  Y    0.013467  -0.003530  -0.053205   0.309217  -0.671447
    5  N  1  Z    0.006675   0.005974  -0.030944   0.314478  -0.485630
    6  C  2  S    0.012147   0.008025   0.093849  -0.138258  -0.131470
    7  C  2  S   -0.038234  -0.036459  -0.474297   0.718893   0.712874
    8  C  2  X    0.002493   0.021908   0.102960   0.205104  -0.033515
    9  C  2  Y    0.043155  -0.587284  -0.133839   0.373262   0.052750
   10  C  2  Z    0.036100   0.722490  -0.137775   0.316010   0.063210
   11  CL 3  S    0.000854   0.000189   0.009960  -0.019489  -0.009117
   12  CL 3  S   -0.003042  -0.000636  -0.028988   0.055484   0.025957
   13  CL 3  X   -0.254708   0.002975   0.045856  -0.065868  -0.029018
   14  CL 3  Y    0.092016  -0.077092   0.053574  -0.118671  -0.054880
   15  CL 3  Z    0.080156   0.095658   0.043309  -0.099409  -0.045656
   16  CL 3  S    0.006711   0.002101   0.167896  -0.342762  -0.161179
   17  CL 3  X    0.912860  -0.011006  -0.184690   0.268870   0.121546
   18  CL 3  Y   -0.328083   0.288825  -0.216778   0.483129   0.224382
   19  CL 3  Z   -0.285821  -0.357760  -0.175325   0.404670   0.186533
   20  H  4  S   -0.141280   0.009368   0.191565  -0.184576  -0.409685
   21  H  5  S   -0.021511  -0.205979  -0.609544  -0.534788   0.210863
   22  H  6  S   -0.037171   0.001617  -0.691024   0.292721  -0.937943
   23  H  7  S   -0.021386   0.197813  -0.608140  -0.480661   0.295766

                     21         22         23
                    0.5471     0.7085     0.9108
                     A          A          A   
    1  N  1  S   -0.001198   0.064761  -0.012549
    2  N  1  S    0.010397  -0.417197   0.091079
    3  N  1  X   -0.068058  -0.745767   0.121203
    4  N  1  Y    0.618298   0.161450   0.220227
    5  N  1  Z   -0.779292   0.185018   0.165361
    6  C  2  S   -0.010162  -0.076966  -0.077607
    7  C  2  S    0.053529   0.434546   0.558625
    8  C  2  X   -0.004926  -1.015829   0.539722
    9  C  2  Y   -0.121947  -0.295489  -0.773052
   10  C  2  Z    0.183399  -0.201420  -0.620095
   11  CL 3  S   -0.000985   0.008635   0.006005
   12  CL 3  S    0.002784  -0.023413  -0.015326
   13  CL 3  X   -0.003429  -0.001082   0.040064
   14  CL 3  Y   -0.014534   0.052438   0.020496
   15  CL 3  Z    0.005719   0.045403   0.017952
   16  CL 3  S   -0.017629   0.166456   0.128104
   17  CL 3  X    0.014272   0.000898  -0.173066
   18  CL 3  Y    0.058689  -0.222552  -0.094027
   19  CL 3  Z   -0.022284  -0.192555  -0.081999
   20  H  4  S   -0.017602  -0.100716  -1.195200
   21  H  5  S    0.826532  -0.203476  -0.061331
   22  H  6  S   -0.037919   0.117666   0.187531
   23  H  7  S   -0.842450  -0.182848  -0.070910

 THE NUCLEAR REPULSION AT THE IRC POINT IS      102.2125694394

 * * * IRC RESTART INFORMATION * * *
 COORDINATES FOR $DATA AND ENTIRE $IRC GROUP FOLLOW

 COORDINATES OF SYMMETRY UNIQUE ATOMS (ANGS)
   ATOM   CHARGE       X              Y              Z
 ------------------------------------------------------------
 N           7.0  -7.3105376610   2.7729569774  -0.2293908375
 C           6.0  -5.8338313298   2.8019976161  -0.2772159220
 CL         17.0  -5.1192669476   4.0388711129   0.7567567872
 H           1.0  -5.3307439743   2.0706540766  -0.8492982642
 H           1.0  -7.7434988788   2.5795116867   0.7075033708
 H           1.0  -7.6351515147   2.0112732604  -0.8542887526
 H           1.0  -7.7908236280   3.6429449647  -0.5649499246
 $IRC   PACE=GS2        STRIDE= 0.10000   NPOINT=??
        STOTAL=  0.099971   NEXTPT=   2
        NPRT= 0   NPUN= 0   SADDLE=.FALSE.
        GA(   1)= 6.446547774E-05, 1.414032026E-03,-1.706993963E-03
        GA(   4)=-8.885421041E-06,-5.074574794E-03, 6.240450530E-03
        GA(   7)= 2.307612570E-05, 1.257355247E-03,-1.394924697E-03
        GA(  10)=-4.580152264E-05, 2.296625214E-03,-2.968887942E-03
        GA(  13)= 2.448758828E-04, 1.834178711E-04,-2.525513076E-05
        GA(  16)= 1.312315435E-05,-9.666203742E-05, 5.840744327E-05
        GA(  19)=-2.908525646E-04, 1.980621980E-05,-2.027963965E-04
 $END   
 A GS2 RESTART ALSO REQUIRES THE UPDATED $HESS GROUP FROM THE PUNCH FILE

 *********************************************
 ***** STARTING CONSTRAINED OPTIMIZATION *****
 *** TO FIND THE NEXT REACTION PATH POINT ****
 *********************************************
 CONSTRAINED OPTIMIZATION POINT   1 FOR PATH POINT   2
 COORDINATES OF SYMMETRY UNIQUE ATOMS (ANGS)
   ATOM   CHARGE       X              Y              Z
 ------------------------------------------------------------
 N           7.0  -7.3105921156   2.7717637798  -0.2279504178
 C           6.0  -5.8338224533   2.8069943801  -0.2833608188
 CL         17.0  -5.1192747592   4.0384462408   0.7572281309
 H           1.0  -5.3302073840   2.0437282724  -0.8144891233
 H           1.0  -7.7463698440   2.5773612341   0.7077993133
 H           1.0  -7.6353054496   2.0124068257  -0.8549734881
 H           1.0  -7.7874133718   3.6427126774  -0.5625721013
 ...... END OF ONE-ELECTRON INTEGRALS ......
 STEP CPU TIME =     0.01 TOTAL CPU TIME =          0.3 (      0.0 MIN)
 TOTAL WALL CLOCK TIME=          0.3 SECONDS, CPU UTILIZATION IS    85.71%
 TOTAL NUMBER OF NONZERO TWO-ELECTRON INTEGRALS =               34473
          3 INTEGRAL RECORDS WERE STORED ON DISK FILE  8.
  ...... END OF TWO-ELECTRON INTEGRALS .....
 STEP CPU TIME =     0.00 TOTAL CPU TIME =          0.3 (      0.0 MIN)
 TOTAL WALL CLOCK TIME=          0.4 SECONDS, CPU UTILIZATION IS    83.33%

          --------------------------
                 RHF SCF CALCULATION
          --------------------------
     DENSITY MATRIX CONV=  1.00E-05

 ITER EX DEM     TOTAL ENERGY        E CHANGE  DENSITY CHANGE     ORB. GRAD
          ---------------START SECOND ORDER SCF---------------
   1  0  0     -547.8522000358  -547.8522000358   0.025262840   0.008830108
   2  1  0     -547.8526084663    -0.0004084305   0.015338177   0.003227368
   3  2  0     -547.8526779608    -0.0000694945   0.000363787   0.000122606
   4  3  0     -547.8526782222    -0.0000002614   0.000257848   0.000056407
   5  4  0     -547.8526782777    -0.0000000555   0.000062293   0.000020627
   6  5  0     -547.8526782809    -0.0000000032   0.000043613   0.000010086
   7  6  0     -547.8526782818    -0.0000000009   0.000006146   0.000001734
   8  7  0     -547.8526782818    -0.0000000000   0.000002188   0.000000464

          -----------------
          DENSITY CONVERGED
          -----------------
     TIME TO FORM FOCK OPERATORS=       0.0 SECONDS (       0.0 SEC/ITER)
     TIME TO SOLVE SCF EQUATIONS=       0.0 SECONDS (       0.0 SEC/ITER)

 FINAL RHF ENERGY IS     -547.8526782818 AFTER   8 ITERATIONS
 ...... END OF RHF CALCULATION ......
 STEP CPU TIME =     0.03 TOTAL CPU TIME =          0.3 (      0.0 MIN)
 TOTAL WALL CLOCK TIME=          0.4 SECONDS, CPU UTILIZATION IS    84.62%
 ..... END OF 1-ELECTRON GRADIENT ......
 STEP CPU TIME =     0.01 TOTAL CPU TIME =          0.3 (      0.0 MIN)
 TOTAL WALL CLOCK TIME=          0.4 SECONDS, CPU UTILIZATION IS    85.00%
 ...... END OF 2-ELECTRON GRADIENT ......
 STEP CPU TIME =     0.02 TOTAL CPU TIME =          0.4 (      0.0 MIN)
 TOTAL WALL CLOCK TIME=          0.4 SECONDS, CPU UTILIZATION IS    85.71%

 UNITS ARE HARTREE/BOHR    E'X               E'Y               E'Z 
    1 N                0.000167206       0.002523045      -0.003605925
    2 C               -0.000900784      -0.008771254       0.013420224
    3 CL               0.000022285       0.002245653      -0.003026877
    4 H                0.000522834       0.003632622      -0.006536952
    5 H                0.000570411       0.000441113      -0.000355957
    6 H                0.000088864       0.000156832       0.000368385
    7 H               -0.000470816      -0.000228011      -0.000262898

 CURRENT OPTIMIZATION POINT :
 ENERGY                                 =  -547.8526783 HARTREE
 MASS WEIGHTED TANGENT GRADIENT NORM    =     0.0015280 HARTREE/BOHR-SQRT(AMU)
 NEXT GEOMETRY STEP HAS PREDICTED ANGLE =         2.579 DEGREES
 AND CARTESIAN RMS DISPLACEMENT         =     0.0018712 BOHR

 CONSTRAINED OPTIMIZATION POINT   2 FOR PATH POINT   2
 COORDINATES OF SYMMETRY UNIQUE ATOMS (ANGS)
   ATOM   CHARGE       X              Y              Z
 ------------------------------------------------------------
 N           7.0  -7.3106292614   2.7717917049  -0.2279244688
 C           6.0  -5.8337381139   2.8068741624  -0.2834728430
 CL         17.0  -5.1192751630   4.0384618413   0.7572451755
 H           1.0  -5.3306116896   2.0443308221  -0.8140755378
 H           1.0  -7.7464004351   2.5773198077   0.7080661012
 H           1.0  -7.6352967216   2.0121294719  -0.8551158165
 H           1.0  -7.7874612890   3.6429310237  -0.5627282428
 ...... END OF ONE-ELECTRON INTEGRALS ......
 STEP CPU TIME =     0.01 TOTAL CPU TIME =          0.4 (      0.0 MIN)
 TOTAL WALL CLOCK TIME=          0.4 SECONDS, CPU UTILIZATION IS    88.10%
 TOTAL NUMBER OF NONZERO TWO-ELECTRON INTEGRALS =               34476
          3 INTEGRAL RECORDS WERE STORED ON DISK FILE  8.
  ...... END OF TWO-ELECTRON INTEGRALS .....
 STEP CPU TIME =     0.01 TOTAL CPU TIME =          0.4 (      0.0 MIN)
 TOTAL WALL CLOCK TIME=          0.4 SECONDS, CPU UTILIZATION IS    86.36%

          --------------------------
                 RHF SCF CALCULATION
          --------------------------
     DENSITY MATRIX CONV=  1.00E-05

 ITER EX DEM     TOTAL ENERGY        E CHANGE  DENSITY CHANGE     ORB. GRAD
          ---------------START SECOND ORDER SCF---------------
   1  0  0     -547.8526798941  -547.8526798941   0.000134397   0.000097621
   2  1  0     -547.8526799293    -0.0000000352   0.000046308   0.000016502
   3  2  0     -547.8526799320    -0.0000000026   0.000010550   0.000006300
   4  3  0     -547.8526799320    -0.0000000001   0.000002028   0.000000790
   5  4  0     -547.8526799321    -0.0000000000   0.000000475   0.000000259

          -----------------
          DENSITY CONVERGED
          -----------------
     TIME TO FORM FOCK OPERATORS=       0.0 SECONDS (       0.0 SEC/ITER)
     TIME TO SOLVE SCF EQUATIONS=       0.0 SECONDS (       0.0 SEC/ITER)

 FINAL RHF ENERGY IS     -547.8526799321 AFTER   5 ITERATIONS
 ...... END OF RHF CALCULATION ......
 STEP CPU TIME =     0.02 TOTAL CPU TIME =          0.4 (      0.0 MIN)
 TOTAL WALL CLOCK TIME=          0.7 SECONDS, CPU UTILIZATION IS    60.61%
 ..... END OF 1-ELECTRON GRADIENT ......
 STEP CPU TIME =     0.00 TOTAL CPU TIME =          0.4 (      0.0 MIN)
 TOTAL WALL CLOCK TIME=          0.7 SECONDS, CPU UTILIZATION IS    59.70%
 ...... END OF 2-ELECTRON GRADIENT ......
 STEP CPU TIME =     0.02 TOTAL CPU TIME =          0.4 (      0.0 MIN)
 TOTAL WALL CLOCK TIME=          0.7 SECONDS, CPU UTILIZATION IS    60.87%

 UNITS ARE HARTREE/BOHR    E'X               E'Y               E'Z 
    1 N                0.000301397       0.002660162      -0.003490199
    2 C               -0.000354365      -0.009581582       0.012826531
    3 CL               0.000049180       0.002311449      -0.002965451
    4 H                0.000046141       0.004356425      -0.006036061
    5 H                0.000490446       0.000380164      -0.000143721
    6 H                0.000022597      -0.000096855       0.000161761
    7 H               -0.000555397      -0.000029762      -0.000352860

 ANGLE TO PREVIOUS OPTIMIZATION POINT IS   2.579
 LINEAR INTERPOLATION GIVES ANGLE          2.577

 CURRENT OPTIMIZATION POINT :
 ENERGY                                 =  -547.8526799 HARTREE
 MASS WEIGHTED TANGENT GRADIENT NORM    =     0.0000140 HARTREE/BOHR-SQRT(AMU)
 NEXT GEOMETRY STEP HAS PREDICTED ANGLE =         0.064 DEGREES
 AND CARTESIAN RMS DISPLACEMENT         =     0.0000504 BOHR

 *******************************************
 ***** END OF CONSTRAINED OPTIMIZATION *****
 *******************************************

 ANGLE BETWEEN GRADIENTS AT CURRENT AND PREVIOUS IRC POINT =   2.577
 ENERGY WAS LOWERED BY      0.0000016502 HARTREE DURING OPTIMIZATION

 ***** NEXT POINT ON IRC FOUND *****
 STEP DISTANCE IS   0.09997 SQRT(AMU)-BOHR)

1         POINT   2 ON THE REACTION PATH
          ******************************
          AT PATH DISTANCE STOTAL =   0.19995     SQRT(AMU)-BOHR
          TOTAL ENERGY            =  -547.8526799 HARTREE
            2 CONSTRAINED OPTIMIZATION STEPS WERE PERFORMED
  
 COORDINATES OF ALL ATOMS ARE (ANGS)
   ATOM   CHARGE       X              Y              Z
 ------------------------------------------------------------
 N           7.0  -7.3106292614   2.7717917049  -0.2279244688
 C           6.0  -5.8337381139   2.8068741624  -0.2834728430
 CL         17.0  -5.1192751630   4.0384618413   0.7572451755
 H           1.0  -5.3306116896   2.0443308221  -0.8140755378
 H           1.0  -7.7464004351   2.5773198077   0.7080661012
 H           1.0  -7.6352967216   2.0121294719  -0.8551158165
 H           1.0  -7.7874612890   3.6429310237  -0.5627282428
  

          INTERNUCLEAR DISTANCES (ANGS.)
          ------------------------------

                1 N          2 C          3 CL         4 H          5 H     

   1 N       0.0000000    1.4783517 *  2.7160717 *  2.1893474 *  1.0506161 *
   2 C       1.4783517 *  0.0000000    1.7636211 *  1.0564789 *  2.1665922 *
   3 CL      2.7160717 *  1.7636211 *  0.0000000    2.5476009 *  3.0065166  
   4 H       2.1893474 *  1.0564789 *  2.5476009 *  0.0000000    2.9046562 *
   5 H       1.0506161 *  2.1665922 *  3.0065166    2.9046562 *  0.0000000  
   6 H       1.0372390 *  2.0503678 *  3.6105533    2.3052753 *  1.6659297 *
   7 H       1.0480201 *  2.1433639 *  3.0029971    2.9419055 *  1.6589549 *

                6 H          7 H     

   1 N       1.0372390 *  1.0480201 *
   2 C       2.0503678 *  2.1433639 *
   3 CL      3.6105533    3.0029971  
   4 H       2.3052753 *  2.9419055 *
   5 H       1.6659297 *  1.6589549 *
   6 H       0.0000000    1.6637783 *
   7 H       1.6637783 *  0.0000000  

  * ... LESS THAN  3.000


          CURRENT CARTESIAN GRADIENT
          ATOM               DE/DX          DE/DY          DE/DZ
          -----------------------------------------------------------
          N                0.0003012931   0.0026600559  -0.0034902885
          C               -0.0003547879  -0.0095809545   0.0128269909
          CL               0.0000491594   0.0023113982  -0.0029654983
          H                0.0000465108   0.0043558639  -0.0060364494
          H                0.0004905082   0.0003802109  -0.0001438857
          H                0.0000226479  -0.0000966586   0.0001619216
          H               -0.0005553310  -0.0000299161  -0.0003527906

 THE NUCLEAR REPULSION AT THE IRC POINT IS      102.2052384858

 * * * IRC RESTART INFORMATION * * *
 COORDINATES FOR $DATA AND ENTIRE $IRC GROUP FOLLOW

 COORDINATES OF SYMMETRY UNIQUE ATOMS (ANGS)
   ATOM   CHARGE       X              Y              Z
 ------------------------------------------------------------
 N           7.0  -7.3106292614   2.7717917049  -0.2279244688
 C           6.0  -5.8337381139   2.8068741624  -0.2834728430
 CL         17.0  -5.1192751630   4.0384618413   0.7572451755
 H           1.0  -5.3306116896   2.0443308221  -0.8140755378
 H           1.0  -7.7464004351   2.5773198077   0.7080661012
 H           1.0  -7.6352967216   2.0121294719  -0.8551158165
 H           1.0  -7.7874612890   3.6429310237  -0.5627282428
 $IRC   PACE=GS2        STRIDE= 0.10000   NPOINT=??
        STOTAL=  0.199946   NEXTPT=   3
        NPRT= 0   NPUN= 0   SADDLE=.FALSE.
        GA(   1)= 3.012931401E-04, 2.660055905E-03,-3.490288481E-03
        GA(   4)=-3.547879387E-04,-9.580954531E-03, 1.282699095E-02
        GA(   7)= 4.915939647E-05, 2.311398222E-03,-2.965498320E-03
        GA(  10)= 4.651084362E-05, 4.355863869E-03,-6.036449446E-03
        GA(  13)= 4.905082412E-04, 3.802108542E-04,-1.438857409E-04
        GA(  16)= 2.264787104E-05,-9.665864597E-05, 1.619215636E-04
        GA(  19)=-5.553309935E-04,-2.991605796E-05,-3.527906361E-04
 $END   
 A GS2 RESTART ALSO REQUIRES THE UPDATED $HESS GROUP FROM THE PUNCH FILE

 *********************************************
 ***** STARTING CONSTRAINED OPTIMIZATION *****
 *** TO FIND THE NEXT REACTION PATH POINT ****
 *********************************************
 CONSTRAINED OPTIMIZATION POINT   1 FOR PATH POINT   3
 COORDINATES OF SYMMETRY UNIQUE ATOMS (ANGS)
   ATOM   CHARGE       X              Y              Z
 ------------------------------------------------------------
 N           7.0  -7.3107573257   2.7706607751  -0.2264406120
 C           6.0  -5.8335621652   2.8116274693  -0.2898363631
 CL         17.0  -5.1192835319   4.0380683215   0.7577500284
 H           1.0  -5.3308861207   2.0185998105  -0.7784179185
 H           1.0  -7.7492978950   2.5750738945   0.7089158425
 H           1.0  -7.6354305117   2.0127006596  -0.8560721938
 H           1.0  -7.7841808535   3.6431075717  -0.5606441505
 ...... END OF ONE-ELECTRON INTEGRALS ......
 STEP CPU TIME =     0.01 TOTAL CPU TIME =          0.4 (      0.0 MIN)
 TOTAL WALL CLOCK TIME=          0.7 SECONDS, CPU UTILIZATION IS    62.32%
 TOTAL NUMBER OF NONZERO TWO-ELECTRON INTEGRALS =               34473
          3 INTEGRAL RECORDS WERE STORED ON DISK FILE  8.
  ...... END OF TWO-ELECTRON INTEGRALS .....
 STEP CPU TIME =     0.02 TOTAL CPU TIME =          0.4 (      0.0 MIN)
 TOTAL WALL CLOCK TIME=          0.7 SECONDS, CPU UTILIZATION IS    63.38%

          --------------------------
                 RHF SCF CALCULATION
          --------------------------
     DENSITY MATRIX CONV=  1.00E-05

 ITER EX DEM     TOTAL ENERGY        E CHANGE  DENSITY CHANGE     ORB. GRAD
          ---------------START SECOND ORDER SCF---------------
   1  0  0     -547.8533046580  -547.8533046580   0.025573083   0.008808424
   2  1  0     -547.8537120402    -0.0004073821   0.015628651   0.003227833
   3  2  0     -547.8537824625    -0.0000704223   0.000351245   0.000120160
   4  3  0     -547.8537827222    -0.0000002597   0.000244199   0.000049642
   5  4  0     -547.8537827742    -0.0000000520   0.000061776   0.000019871
   6  5  0     -547.8537827770    -0.0000000028   0.000043408   0.000009798
   7  6  0     -547.8537827778    -0.0000000008   0.000005015   0.000001537
   8  7  0     -547.8537827778    -0.0000000000   0.000002070   0.000000475

          -----------------
          DENSITY CONVERGED
          -----------------
     TIME TO FORM FOCK OPERATORS=       0.0 SECONDS (       0.0 SEC/ITER)
     TIME TO SOLVE SCF EQUATIONS=       0.0 SECONDS (       0.0 SEC/ITER)

 FINAL RHF ENERGY IS     -547.8537827778 AFTER   8 ITERATIONS
 ...... END OF RHF CALCULATION ......
 STEP CPU TIME =     0.02 TOTAL CPU TIME =          0.5 (      0.0 MIN)
 TOTAL WALL CLOCK TIME=          0.7 SECONDS, CPU UTILIZATION IS    63.51%
 ..... END OF 1-ELECTRON GRADIENT ......
 STEP CPU TIME =     0.01 TOTAL CPU TIME =          0.5 (      0.0 MIN)
 TOTAL WALL CLOCK TIME=          0.7 SECONDS, CPU UTILIZATION IS    64.86%
 ...... END OF 2-ELECTRON GRADIENT ......
 STEP CPU TIME =     0.02 TOTAL CPU TIME =          0.5 (      0.0 MIN)
 TOTAL WALL CLOCK TIME=          0.8 SECONDS, CPU UTILIZATION IS    65.79%

 UNITS ARE HARTREE/BOHR    E'X               E'Y               E'Z 
    1 N                0.001122178       0.003925473      -0.005313920
    2 C               -0.001719840      -0.012648020       0.020165173
    3 CL               0.000127532       0.003246516      -0.004600290
    4 H                0.000828790       0.005218842      -0.009734252
    5 H                0.000607516       0.000505291       0.000001462
    6 H               -0.000061697      -0.000355653       0.000053514
    7 H               -0.000904478       0.000107551      -0.000571687

 CURRENT OPTIMIZATION POINT :
 ENERGY                                 =  -547.8537828 HARTREE
 MASS WEIGHTED TANGENT GRADIENT NORM    =     0.0018310 HARTREE/BOHR-SQRT(AMU)
 NEXT GEOMETRY STEP HAS PREDICTED ANGLE =         2.672 DEGREES
 AND CARTESIAN RMS DISPLACEMENT         =     0.0020053 BOHR

 CONSTRAINED OPTIMIZATION POINT   2 FOR PATH POINT   3
 COORDINATES OF SYMMETRY UNIQUE ATOMS (ANGS)
   ATOM   CHARGE       X              Y              Z
 ------------------------------------------------------------
 N           7.0  -7.3108184090   2.7706711044  -0.2264238463
 C           6.0  -5.8334603220   2.8115205893  -0.2899264311
 CL         17.0  -5.1192880935   4.0380759934   0.7577592632
 H           1.0  -5.3313274170   2.0193643132  -0.7779391153
 H           1.0  -7.7491838934   2.5751396997   0.7087991910
 H           1.0  -7.6353856299   2.0128271098  -0.8559324716
 H           1.0  -7.7841040824   3.6430137011  -0.5606269745
 ...... END OF ONE-ELECTRON INTEGRALS ......
 STEP CPU TIME =     0.00 TOTAL CPU TIME =          0.5 (      0.0 MIN)
 TOTAL WALL CLOCK TIME=          0.8 SECONDS, CPU UTILIZATION IS    65.79%
 TOTAL NUMBER OF NONZERO TWO-ELECTRON INTEGRALS =               34473
          3 INTEGRAL RECORDS WERE STORED ON DISK FILE  8.
  ...... END OF TWO-ELECTRON INTEGRALS .....
 STEP CPU TIME =     0.01 TOTAL CPU TIME =          0.5 (      0.0 MIN)
 TOTAL WALL CLOCK TIME=          0.8 SECONDS, CPU UTILIZATION IS    65.38%

          --------------------------
                 RHF SCF CALCULATION
          --------------------------
     DENSITY MATRIX CONV=  1.00E-05

 ITER EX DEM     TOTAL ENERGY        E CHANGE  DENSITY CHANGE     ORB. GRAD
          ---------------START SECOND ORDER SCF---------------
   1  0  0     -547.8537848219  -547.8537848219   0.000161969   0.000111822
   2  1  0     -547.8537848716    -0.0000000497   0.000080746   0.000018366
   3  2  0     -547.8537848765    -0.0000000048   0.000013101   0.000009328
   4  3  0     -547.8537848766    -0.0000000002   0.000002989   0.000001253
   5  4  0     -547.8537848766    -0.0000000000   0.000000609   0.000000538

          -----------------
          DENSITY CONVERGED
          -----------------
     TIME TO FORM FOCK OPERATORS=       0.0 SECONDS (       0.0 SEC/ITER)
     TIME TO SOLVE SCF EQUATIONS=       0.0 SECONDS (       0.0 SEC/ITER)

 FINAL RHF ENERGY IS     -547.8537848766 AFTER   5 ITERATIONS
 ...... END OF RHF CALCULATION ......
 STEP CPU TIME =     0.02 TOTAL CPU TIME =          0.5 (      0.0 MIN)
 TOTAL WALL CLOCK TIME=          0.8 SECONDS, CPU UTILIZATION IS    66.25%
 ..... END OF 1-ELECTRON GRADIENT ......
 STEP CPU TIME =     0.00 TOTAL CPU TIME =          0.5 (      0.0 MIN)
 TOTAL WALL CLOCK TIME=          0.8 SECONDS, CPU UTILIZATION IS    66.25%
 ...... END OF 2-ELECTRON GRADIENT ......
 STEP CPU TIME =     0.02 TOTAL CPU TIME =          0.6 (      0.0 MIN)
 TOTAL WALL CLOCK TIME=          0.8 SECONDS, CPU UTILIZATION IS    67.07%

 UNITS ARE HARTREE/BOHR    E'X               E'Y               E'Z 
    1 N                0.000866589       0.003874780      -0.005292433
[...]
 TOTAL NUMBER OF NONZERO TWO-ELECTRON INTEGRALS =               34236
          3 INTEGRAL RECORDS WERE STORED ON DISK FILE  8.
  ...... END OF TWO-ELECTRON INTEGRALS .....
 STEP CPU TIME =     0.01 TOTAL CPU TIME =          5.7 (      0.1 MIN)
 TOTAL WALL CLOCK TIME=          6.3 SECONDS, CPU UTILIZATION IS    90.82%

          --------------------------
                 RHF SCF CALCULATION
          --------------------------
     DENSITY MATRIX CONV=  1.00E-05

 ITER EX DEM     TOTAL ENERGY        E CHANGE  DENSITY CHANGE     ORB. GRAD
          ---------------START SECOND ORDER SCF---------------
   1  0  0     -547.9155279364  -547.9155279364   0.000042404   0.000018685
   2  1  0     -547.9155279404    -0.0000000040   0.000021852   0.000006915
   3  2  0     -547.9155279409    -0.0000000005   0.000002204   0.000000914
   4  3  0     -547.9155279409    -0.0000000000   0.000000793   0.000000294

          -----------------
          DENSITY CONVERGED
          -----------------
     TIME TO FORM FOCK OPERATORS=       0.0 SECONDS (       0.0 SEC/ITER)
     TIME TO SOLVE SCF EQUATIONS=       0.0 SECONDS (       0.0 SEC/ITER)

 FINAL RHF ENERGY IS     -547.9155279409 AFTER   4 ITERATIONS
 ...... END OF RHF CALCULATION ......
 STEP CPU TIME =     0.02 TOTAL CPU TIME =          5.8 (      0.1 MIN)
 TOTAL WALL CLOCK TIME=          6.3 SECONDS, CPU UTILIZATION IS    91.00%
 ..... END OF 1-ELECTRON GRADIENT ......
 STEP CPU TIME =     0.00 TOTAL CPU TIME =          5.8 (      0.1 MIN)
 TOTAL WALL CLOCK TIME=          6.3 SECONDS, CPU UTILIZATION IS    90.85%
 ...... END OF 2-ELECTRON GRADIENT ......
 STEP CPU TIME =     0.01 TOTAL CPU TIME =          5.8 (      0.1 MIN)
 TOTAL WALL CLOCK TIME=          6.3 SECONDS, CPU UTILIZATION IS    90.87%

 UNITS ARE HARTREE/BOHR    E'X               E'Y               E'Z 
    1 N               -0.000599332      -0.000408193      -0.000314362
    2 C               -0.000234470       0.000160142       0.000258868
    3 CL               0.001001388       0.000382739       0.000189529
    4 H               -0.000023919       0.000019817       0.000018198
    5 H               -0.000095832      -0.000073808      -0.000052050
    6 H                0.000025935      -0.000040392      -0.000080325
    7 H               -0.000073769      -0.000040305      -0.000019857

 ANGLE TO PREVIOUS OPTIMIZATION POINT IS   0.501
 LINEAR INTERPOLATION GIVES ANGLE          0.467

 CURRENT OPTIMIZATION POINT :
 ENERGY                                 =  -547.9155279 HARTREE
 MASS WEIGHTED TANGENT GRADIENT NORM    =     0.0000085 HARTREE/BOHR-SQRT(AMU)
 NEXT GEOMETRY STEP HAS PREDICTED ANGLE =         0.151 DEGREES
 AND CARTESIAN RMS DISPLACEMENT         =     0.0001264 BOHR

 *******************************************
 ***** END OF CONSTRAINED OPTIMIZATION *****
 *******************************************

 ANGLE BETWEEN GRADIENTS AT CURRENT AND PREVIOUS IRC POINT =   6.365
 ENERGY WAS LOWERED BY      0.0000057705 HARTREE DURING OPTIMIZATION

 ***** NEXT POINT ON IRC FOUND *****
 STEP DISTANCE IS   0.09985 SQRT(AMU)-BOHR)

1         POINT  34 ON THE REACTION PATH
          ******************************
          AT PATH DISTANCE STOTAL =   3.39531     SQRT(AMU)-BOHR
          TOTAL ENERGY            =  -547.9155279 HARTREE
            4 CONSTRAINED OPTIMIZATION STEPS WERE PERFORMED
  
 COORDINATES OF ALL ATOMS ARE (ANGS)
   ATOM   CHARGE       X              Y              Z
 ------------------------------------------------------------
 N           7.0  -7.3283138826   2.7958854574  -0.1619323171
 C           6.0  -5.7002350979   2.8072615216  -0.5102374850
 CL         17.0  -5.1555580900   4.0290352566   0.7746837227
 H           1.0  -5.4654468077   1.8512278631   0.0107753887
 H           1.0  -7.6034306711   2.6350145106   0.8258607222
 H           1.0  -7.7868321138   2.0708197124  -0.7405336871
 H           1.0  -7.7290208300   3.7073474341  -0.4418971667
  

          INTERNUCLEAR DISTANCES (ANGS.)
          ------------------------------

                1 N          2 C          3 CL         4 H          5 H     

   1 N       0.0000000    1.6649584 *  2.6681034 *  2.0958243 *  1.0379325 *
   2 C       1.6649584 *  0.0000000    1.8548387 *  1.1138134 *  2.3317334 *
   3 CL      2.6681034 *  1.8548387 *  0.0000000    2.3286116 *  2.8174444 *
   4 H       2.0958243 *  1.1138134 *  2.3286116 *  0.0000000    2.4186072 *
   5 H       1.0379325 *  2.3317334 *  2.8174444 *  2.4186072 *  0.0000000  
   6 H       1.0347651 *  2.2246955 *  3.6130451    2.4497991 *  1.6749756 *
   7 H       1.0342675 *  2.2205397 *  2.8646575 *  2.9620702 *  1.6651969 *

                6 H          7 H     

   1 N       1.0347651 *  1.0342675 *
   2 C       2.2246955 *  2.2205397 *
   3 CL      3.6130451    2.8646575 *
   4 H       2.4497991 *  2.9620702 *
   5 H       1.6749756 *  1.6651969 *
   6 H       0.0000000    1.6645567 *
   7 H       1.6645567 *  0.0000000  

  * ... LESS THAN  3.000


          CURRENT CARTESIAN GRADIENT
          ATOM               DE/DX          DE/DY          DE/DZ
          -----------------------------------------------------------
          N               -0.0006023324  -0.0004116546  -0.0003111065
          C               -0.0002342744   0.0001611006   0.0002594067
          CL               0.0010011610   0.0003821663   0.0001888918
          H               -0.0000235432   0.0000191899   0.0000185434
          H               -0.0000939012  -0.0000733096  -0.0000551197
          H                0.0000271828  -0.0000394631  -0.0000799149
          H               -0.0000742920  -0.0000380296  -0.0000207007

 THE NUCLEAR REPULSION AT THE IRC POINT IS       99.8693861310

 * * * IRC RESTART INFORMATION * * *
 COORDINATES FOR $DATA AND ENTIRE $IRC GROUP FOLLOW

 COORDINATES OF SYMMETRY UNIQUE ATOMS (ANGS)
   ATOM   CHARGE       X              Y              Z
 ------------------------------------------------------------
 N           7.0  -7.3283138826   2.7958854574  -0.1619323171
 C           6.0  -5.7002350979   2.8072615216  -0.5102374850
 CL         17.0  -5.1555580900   4.0290352566   0.7746837227
 H           1.0  -5.4654468077   1.8512278631   0.0107753887
 H           1.0  -7.6034306711   2.6350145106   0.8258607222
 H           1.0  -7.7868321138   2.0708197124  -0.7405336871
 H           1.0  -7.7290208300   3.7073474341  -0.4418971667
 $IRC   PACE=GS2        STRIDE= 0.10000   NPOINT=??
        STOTAL=  3.395312   NEXTPT=  35
        NPRT= 0   NPUN= 0   SADDLE=.FALSE.
        GA(   1)=-6.023323742E-04,-4.116545796E-04,-3.111064567E-04
        GA(   4)=-2.342743531E-04, 1.611006317E-04, 2.594066847E-04
        GA(   7)= 1.001161032E-03, 3.821662880E-04, 1.888917854E-04
        GA(  10)=-2.354322762E-05, 1.918988890E-05, 1.854340639E-05
        GA(  13)=-9.390119206E-05,-7.330964875E-05,-5.511973719E-05
        GA(  16)= 2.718278703E-05,-3.946306088E-05,-7.991491629E-05
        GA(  19)=-7.429199090E-05,-3.802961353E-05,-2.070074214E-05
 $END   
 A GS2 RESTART ALSO REQUIRES THE UPDATED $HESS GROUP FROM THE PUNCH FILE

 *********************************************
 ***** STARTING CONSTRAINED OPTIMIZATION *****
 *** TO FIND THE NEXT REACTION PATH POINT ****
 *********************************************
 CONSTRAINED OPTIMIZATION POINT   1 FOR PATH POINT  35
 COORDINATES OF SYMMETRY UNIQUE ATOMS (ANGS)
   ATOM   CHARGE       X              Y              Z
 ------------------------------------------------------------
 N           7.0  -7.3218879969   2.8002781241  -0.1586125890
 C           6.0  -5.6973170318   2.8052557426  -0.5134662412
 CL         17.0  -5.1598361508   4.0274021257   0.7738761453
 H           1.0  -5.4619555290   1.8483823609   0.0080284818
 H           1.0  -7.5895014885   2.6458781564   0.8340305328
 H           1.0  -7.7908587672   2.0766735423  -0.7286901239
 H           1.0  -7.7180057897   3.7129900121  -0.4388240522
 ...... END OF ONE-ELECTRON INTEGRALS ......
 STEP CPU TIME =     0.01 TOTAL CPU TIME =          5.8 (      0.1 MIN)
 TOTAL WALL CLOCK TIME=          6.4 SECONDS, CPU UTILIZATION IS    90.88%
 TOTAL NUMBER OF NONZERO TWO-ELECTRON INTEGRALS =               34216
          3 INTEGRAL RECORDS WERE STORED ON DISK FILE  8.
  ...... END OF TWO-ELECTRON INTEGRALS .....
 STEP CPU TIME =     0.01 TOTAL CPU TIME =          5.8 (      0.1 MIN)
 TOTAL WALL CLOCK TIME=          6.4 SECONDS, CPU UTILIZATION IS    90.89%

          --------------------------
                 RHF SCF CALCULATION
          --------------------------
     DENSITY MATRIX CONV=  1.00E-05

 ITER EX DEM     TOTAL ENERGY        E CHANGE  DENSITY CHANGE     ORB. GRAD
          ---------------START SECOND ORDER SCF---------------
   1  0  0     -547.9154936376  -547.9154936376   0.004554546   0.001627932
   2  1  0     -547.9155305688    -0.0000369312   0.002433346   0.000583779
   3  2  0     -547.9155357673    -0.0000051985   0.000117084   0.000044160
   4  3  0     -547.9155358033    -0.0000000360   0.000061973   0.000018093
   5  4  0     -547.9155358089    -0.0000000056   0.000005201   0.000001668
   6  5  0     -547.9155358090    -0.0000000001   0.000003158   0.000000686

          -----------------
          DENSITY CONVERGED
          -----------------
     TIME TO FORM FOCK OPERATORS=       0.0 SECONDS (       0.0 SEC/ITER)
     TIME TO SOLVE SCF EQUATIONS=       0.0 SECONDS (       0.0 SEC/ITER)

 FINAL RHF ENERGY IS     -547.9155358090 AFTER   6 ITERATIONS
 ...... END OF RHF CALCULATION ......
 STEP CPU TIME =     0.02 TOTAL CPU TIME =          5.8 (      0.1 MIN)
 TOTAL WALL CLOCK TIME=          6.4 SECONDS, CPU UTILIZATION IS    90.92%
 ..... END OF 1-ELECTRON GRADIENT ......
 STEP CPU TIME =     0.00 TOTAL CPU TIME =          5.8 (      0.1 MIN)
 TOTAL WALL CLOCK TIME=          6.4 SECONDS, CPU UTILIZATION IS    90.78%
 ...... END OF 2-ELECTRON GRADIENT ......
 STEP CPU TIME =     0.02 TOTAL CPU TIME =          5.8 (      0.1 MIN)
 TOTAL WALL CLOCK TIME=          6.4 SECONDS, CPU UTILIZATION IS    90.95%

 UNITS ARE HARTREE/BOHR    E'X               E'Y               E'Z 
    1 N               -0.000042869       0.000196019      -0.002479660
    2 C               -0.000141350       0.000707189      -0.000432987
    3 CL              -0.000256652      -0.000111256      -0.000074004
    4 H                0.000151660      -0.000695236       0.000406672
    5 H               -0.000458771      -0.000390038       0.001726928
    6 H                0.000461742       0.000902905       0.000753692
    7 H                0.000286242      -0.000609583       0.000099359

 CURRENT OPTIMIZATION POINT :
 ENERGY                                 =  -547.9155358 HARTREE
 MASS WEIGHTED TANGENT GRADIENT NORM    =     0.0025482 HARTREE/BOHR-SQRT(AMU)
 NEXT GEOMETRY STEP HAS PREDICTED ANGLE =        17.791 DEGREES
 AND CARTESIAN RMS DISPLACEMENT         =     0.0146204 BOHR

 CONSTRAINED OPTIMIZATION POINT   2 FOR PATH POINT  35
 COORDINATES OF SYMMETRY UNIQUE ATOMS (ANGS)
   ATOM   CHARGE       X              Y              Z
 ------------------------------------------------------------
 N           7.0  -7.3222207591   2.8000873339  -0.1586323670
 C           6.0  -5.6974424735   2.8056712631  -0.5136365888
 CL         17.0  -5.1596422658   4.0273433031   0.7740416932
 H           1.0  -5.4622352148   1.8493757454   0.0068934569
 H           1.0  -7.5887721015   2.6499351752   0.8332445007
 H           1.0  -7.7904625742   2.0725950721  -0.7264593481
 H           1.0  -7.7194618545   3.7117624419  -0.4425747437
 ...... END OF ONE-ELECTRON INTEGRALS ......
 STEP CPU TIME =     0.00 TOTAL CPU TIME =          5.8 (      0.1 MIN)
 TOTAL WALL CLOCK TIME=          6.4 SECONDS, CPU UTILIZATION IS    90.81%
 TOTAL NUMBER OF NONZERO TWO-ELECTRON INTEGRALS =               34226
          3 INTEGRAL RECORDS WERE STORED ON DISK FILE  8.
  ...... END OF TWO-ELECTRON INTEGRALS .....
 STEP CPU TIME =     0.01 TOTAL CPU TIME =          5.8 (      0.1 MIN)
 TOTAL WALL CLOCK TIME=          6.4 SECONDS, CPU UTILIZATION IS    90.82%

          --------------------------
                 RHF SCF CALCULATION
          --------------------------
     DENSITY MATRIX CONV=  1.00E-05

 ITER EX DEM     TOTAL ENERGY        E CHANGE  DENSITY CHANGE     ORB. GRAD
          ---------------START SECOND ORDER SCF---------------
   1  0  0     -547.9155369476  -547.9155369476   0.001589312   0.000723848
   2  1  0     -547.9155411097    -0.0000041621   0.000761491   0.000238774
   3  2  0     -547.9155416050    -0.0000004954   0.000015563   0.000006714
   4  3  0     -547.9155416055    -0.0000000005   0.000006103   0.000001814
   5  4  0     -547.9155416056    -0.0000000000   0.000001409   0.000000485

          -----------------
          DENSITY CONVERGED
          -----------------
     TIME TO FORM FOCK OPERATORS=       0.0 SECONDS (       0.0 SEC/ITER)
     TIME TO SOLVE SCF EQUATIONS=       0.0 SECONDS (       0.0 SEC/ITER)

 FINAL RHF ENERGY IS     -547.9155416056 AFTER   5 ITERATIONS
 ...... END OF RHF CALCULATION ......
 STEP CPU TIME =     0.03 TOTAL CPU TIME =          5.9 (      0.1 MIN)
 TOTAL WALL CLOCK TIME=          6.4 SECONDS, CPU UTILIZATION IS    91.01%
 ..... END OF 1-ELECTRON GRADIENT ......
 STEP CPU TIME =     0.00 TOTAL CPU TIME =          5.9 (      0.1 MIN)
 TOTAL WALL CLOCK TIME=          6.4 SECONDS, CPU UTILIZATION IS    91.01%
 ...... END OF 2-ELECTRON GRADIENT ......
 STEP CPU TIME =     0.02 TOTAL CPU TIME =          5.9 (      0.1 MIN)
 TOTAL WALL CLOCK TIME=          6.5 SECONDS, CPU UTILIZATION IS    91.04%

 UNITS ARE HARTREE/BOHR    E'X               E'Y               E'Z 
    1 N                0.000120534       0.000210396       0.000005387
    2 C                0.000058908       0.000059622      -0.000071214
    3 CL              -0.000202643      -0.000077561      -0.000043167
    4 H               -0.000028066      -0.000045339       0.000013460
    5 H                0.000001894      -0.000042685       0.000079148
    6 H               -0.000048829      -0.000074561       0.000017768
    7 H                0.000098202      -0.000029873      -0.000001382

 STOPPING BECAUSE GRADIENT IS BELOW -OPTTOL-
 YOUR RUN IS PROBABLY VERY NEAR A PES MINIMUM.
 MAX GRADIENT= 0.000210 RMS GRADIENT= 0.000084


 *******************************************
 ***** END OF CONSTRAINED OPTIMIZATION *****
 *******************************************

 ANGLE BETWEEN GRADIENTS AT CURRENT AND PREVIOUS IRC POINT =  17.791
 ENERGY WAS LOWERED BY      0.0000057965 HARTREE DURING OPTIMIZATION

 ***** NEXT POINT ON IRC FOUND *****
 STEP DISTANCE IS   0.09880 SQRT(AMU)-BOHR)

1         POINT  35 ON THE REACTION PATH
          ******************************
          AT PATH DISTANCE STOTAL =   3.49411     SQRT(AMU)-BOHR
          TOTAL ENERGY            =  -547.9155416 HARTREE
            2 CONSTRAINED OPTIMIZATION STEPS WERE PERFORMED
  
 COORDINATES OF ALL ATOMS ARE (ANGS)
   ATOM   CHARGE       X              Y              Z
 ------------------------------------------------------------
 N           7.0  -7.3222207591   2.8000873339  -0.1586323670
 C           6.0  -5.6974424735   2.8056712631  -0.5136365888
 CL         17.0  -5.1596422658   4.0273433031   0.7740416932
 H           1.0  -5.4622352148   1.8493757454   0.0068934569
 H           1.0  -7.5887721015   2.6499351752   0.8332445007
 H           1.0  -7.7904625742   2.0725950721  -0.7264593481
 H           1.0  -7.7194618545   3.7117624419  -0.4425747437
  

          INTERNUCLEAR DISTANCES (ANGS.)
          ------------------------------

                1 N          2 C          3 CL         4 H          5 H     

   1 N       0.0000000    1.6631187 *  2.6557078 *  2.0954230 *  1.0379860 *
   2 C       1.6631187 *  0.0000000    1.8546771 *  1.1139008 *  2.3271163 *
   3 CL      2.6557078 *  1.8546771 *  0.0000000    2.3288670 *  2.7931040 *
   4 H       2.0954230 *  1.1139008 *  2.3288670 *  0.0000000    2.4178318 *
   5 H       1.0379860 *  2.3271163 *  2.7931040 *  2.4178318 *  0.0000000  
   6 H       1.0348540 *  2.2278751 *  3.6046858    2.4511785 *  1.6753139 *
   7 H       1.0342027 *  2.2168927 *  2.8517404 *  2.9606719 *  1.6650140 *

                6 H          7 H     

   1 N       1.0348540 *  1.0342027 *
   2 C       2.2278751 *  2.2168927 *
   3 CL      3.6046858    2.8517404 *
   4 H       2.4511785 *  2.9606719 *
   5 H       1.6753139 *  1.6650140 *
   6 H       0.0000000    1.6650830 *
   7 H       1.6650830 *  0.0000000  

  * ... LESS THAN  3.000


          CURRENT CARTESIAN GRADIENT
          ATOM               DE/DX          DE/DY          DE/DZ
          -----------------------------------------------------------
          N                0.0001205338   0.0002103956   0.0000053867
          C                0.0000589080   0.0000596220  -0.0000712138
          CL              -0.0002026430  -0.0000775605  -0.0000431665
          H               -0.0000280657  -0.0000453386   0.0000134605
          H                0.0000018936  -0.0000426847   0.0000791476
          H               -0.0000488289  -0.0000745612   0.0000177679
          H                0.0000982021  -0.0000298733  -0.0000013824

 THE NUCLEAR REPULSION AT THE IRC POINT IS      100.0470190900

 * * * IRC RESTART INFORMATION * * *
 COORDINATES FOR $DATA AND ENTIRE $IRC GROUP FOLLOW

 COORDINATES OF SYMMETRY UNIQUE ATOMS (ANGS)
   ATOM   CHARGE       X              Y              Z
 ------------------------------------------------------------
 N           7.0  -7.3222207591   2.8000873339  -0.1586323670
 C           6.0  -5.6974424735   2.8056712631  -0.5136365888
 CL         17.0  -5.1596422658   4.0273433031   0.7740416932
 H           1.0  -5.4622352148   1.8493757454   0.0068934569
 H           1.0  -7.5887721015   2.6499351752   0.8332445007
 H           1.0  -7.7904625742   2.0725950721  -0.7264593481
 H           1.0  -7.7194618545   3.7117624419  -0.4425747437
 $IRC   PACE=GS2        STRIDE= 0.10000   NPOINT=??
        STOTAL=  3.494109   NEXTPT=  36
        NPRT= 0   NPUN= 0   SADDLE=.FALSE.
        GA(   1)= 1.205338379E-04, 2.103956112E-04, 5.386746261E-06
        GA(   4)= 5.890801334E-05, 5.962204610E-05,-7.121383637E-05
        GA(   7)=-2.026429530E-04,-7.756053392E-05,-4.316651802E-05
        GA(  10)=-2.806566031E-05,-4.533859327E-05, 1.346048104E-05
        GA(  13)= 1.893610108E-06,-4.268472301E-05, 7.914761053E-05
        GA(  16)=-4.882893167E-05,-7.456121373E-05, 1.776785586E-05
        GA(  19)= 9.820210581E-05,-2.987328176E-05,-1.382359489E-06
 $END   
 A GS2 RESTART ALSO REQUIRES THE UPDATED $HESS GROUP FROM THE PUNCH FILE
 ......DONE WITH THIS PORTION OF THE IRC......
 STEP CPU TIME =     0.00 TOTAL CPU TIME =          5.9 (      0.1 MIN)
 TOTAL WALL CLOCK TIME=          6.5 SECONDS, CPU UTILIZATION IS    91.04%

   1 warning(s) detected.
     A line exceeding 80 characters begins with " $irc npoint=100 sad".
 There may be a problem in your input file.

               580000  WORDS OF DYNAMIC MEMORY USED
 EXECUTION OF GAMESS TERMINATED NORMALLY Tue Dec 21 22:58:38 2021
 DDI: 263640 bytes (0.3 MB / 0 MWords) used by master data server.

 ----------------------------------------
 CPU timing information for all processes
 ========================================
 0: 3.722 + 2.174 = 5.897
 ----------------------------------------
 ddikick.x: exited gracefully.
----- accounting info -----
Files used on the master node chemcompute-node-0.novalocal were:
-rw-r--r--. 1 chemcomp chemcomp     8122 Dec 21 22:58 /scratch/330233/368215.F05
-rw-rw-r--. 1 chemcomp chemcomp   540048 Dec 21 22:58 /scratch/330233/368215.F08
-rw-rw-r--. 1 chemcomp chemcomp 52428800 Dec 21 22:58 /scratch/330233/368215.F10
Tue Dec 21 22:58:42 UTC 2021
0.155u 0.082s 0:10.21 2.2%	0+0k 16+232io 0pf+0w
Finishing Up...
Looking for IR data...
Looking for Raman data...
vibramans not found
Looking for thermodynamics data...
Looking for UV-Vis data...
330233
